version 3
run General-1-20231219-07:30:08-20012
attr configname General
attr datetime 20231219-07:30:08
attr datetimef 20231219-073008
attr experiment General
attr inifile omnetpp.ini
attr iterationvars $0=23
attr iterationvarsd 23
attr iterationvarsf 23-
attr measurement $0=23
attr network Sensor_network
attr processid 20012
attr repetition 0
attr replication #0
attr resultdir results
attr runnumber 1
attr seedset 23
config network Sensor_network
config seed-set 23

vector 0 Sensor_network.sensor[3] Each_sensor_energy:vector ETV
attr recordingmode vector
attr source batterylevel
vector 1 Sensor_network.sensor[0] Each_sensor_energy:vector ETV
attr recordingmode vector
attr source batterylevel
vector 2 Sensor_network.sensor[1] Each_sensor_energy:vector ETV
attr recordingmode vector
attr source batterylevel
vector 3 Sensor_network.sensor[4] Each_sensor_energy:vector ETV
attr recordingmode vector
attr source batterylevel
vector 4 Sensor_network.sensor[2] Each_sensor_energy:vector ETV
attr recordingmode vector
attr source batterylevel
0	1	10.92494242941	9999.4632009703
0	16	21.092081637587	9998.9264019405
0	31	31.259220845764	9998.3896029108
0	46	41.426360053941	9997.8528038811
0	61	51.593499262118	9997.3160048514
0	76	61.760638470295	9996.7792058216
0	91	71.927777678472	9996.2424067919
0	106	82.094916886649	9995.7056077622
0	121	92.262056094826	9995.1688087325
0	136	102.429195303003	9994.6320097027
0	151	112.59633451118	9994.095210673
0	166	122.763473719357	9993.5584116433
0	181	132.930612927534	9993.0216126135
0	196	143.097752135711	9992.4848135838
0	208	153.264891343888	9991.9480145541
0	223	163.432030552065	9991.4112155244
0	238	173.599169760242	9990.8744164946
0	253	183.766308968419	9990.3376174649
0	268	193.933448176596	9989.8008184352
0	283	204.100587384773	9989.2640194055
0	298	214.26772659295	9988.7272203757
0	313	224.434865801127	9988.190421346
0	328	234.602005009304	9987.6536223163
0	343	244.769144217481	9987.1168232865
0	358	254.936283425658	9986.5800242568
0	373	265.103422633835	9986.0432252271
0	388	275.270561842012	9985.5064261974
0	403	285.437701050189	9984.9696271676
0	418	295.604840258366	9984.4328281379
0	433	305.771979466543	9983.8960291082
0	448	315.93911867472	9983.3592300785
0	463	326.106257882897	9982.8224310487
0	478	336.273397091074	9982.285632019
0	493	346.440536299251	9981.7488329893
0	502	356.607675507428	9981.2120339595
0	517	366.774814715605	9980.6752349298
0	532	376.941953923782	9980.1384359001
0	547	387.109093131959	9979.6016368704
0	562	397.276232340136	9979.0648378406
0	577	407.443371548313	9978.5280388109
0	592	417.61051075649	9977.9912397812
0	607	427.777649964667	9977.4544407515
0	622	437.944789172844	9976.9176417217
0	637	448.111928381021	9976.380842692
0	652	458.279067589198	9975.8440436623
0	667	468.446206797375	9975.3072446325
0	682	478.613346005552	9974.7704456028
0	697	488.780485213729	9974.2336465731
0	712	498.947624421906	9973.6968475434
0	727	509.114763630083	9973.1600485136
0	742	519.28190283826	9972.6232494839
0	757	529.449042046437	9972.0864504542
0	772	539.616181254614	9971.5496514245
0	787	549.783320462791	9971.0128523947
0	802	559.950459670968	9970.476053365
0	814	570.117598879145	9969.9392543353
0	829	580.284738087322	9969.4024553055
0	844	590.451877295499	9968.8656562758
0	859	600.619016503676	9968.3288572461
0	874	610.786155711853	9967.7920582164
0	889	620.95329492003	9967.2552591866
0	904	631.120434128207	9966.7184601569
0	919	641.287573336384	9966.1816611272
0	934	651.454712544561	9965.6448620975
0	949	661.621851752738	9965.1080630677
0	964	671.788990960915	9964.571264038
0	979	681.956130169092	9964.0344650083
0	994	692.123269377269	9963.4976659785
0	1009	702.290408585446	9962.9608669488
0	1024	712.457547793623	9962.4240679191
0	1039	722.6246870018	9961.8872688894
0	1054	732.791826209977	9961.3504698596
0	1069	742.958965418154	9960.8136708299
0	1084	753.126104626331	9960.2768718002
0	1099	763.293243834508	9959.7400727705
0	1111	773.460383042685	9959.2032737407
0	1123	783.627522250862	9958.666474711
0	1138	793.794661459039	9958.1296756813
0	1153	803.961800667216	9957.5928766515
0	1168	814.128939875393	9957.0560776218
0	1180	824.29607908357	9956.5192785921
0	1195	834.463218291747	9955.9824795624
0	1210	844.630357499924	9955.4456805326
0	1225	854.797496708101	9954.9088815029
0	1240	864.964635916278	9954.3720824732
0	1255	875.131775124455	9953.8352834435
0	1270	885.298914332632	9953.2984844137
0	1285	895.466053540809	9952.761685384
0	1300	905.633192748986	9952.2248863543
0	1315	915.800331957163	9951.6880873245
0	1330	925.96747116534	9951.1512882948
0	1345	936.134610373517	9950.6144892651
0	1360	946.301749581694	9950.0776902354
0	1375	956.468888789871	9949.5408912056
0	1390	966.636027998048	9949.0040921759
0	1405	976.803167206225	9948.4672931462
0	1417	986.970306414402	9947.9304941165
0	1432	997.137445622579	9947.3936950867
0	1447	1007.304584830756	9946.856896057
0	1462	1017.471724038933	9946.3200970273
0	1477	1027.63886324711	9945.7832979975
0	1492	1037.806002455287	9945.2464989678
0	1507	1047.973141663464	9944.7096999381
0	1522	1058.140280871641	9944.1729009084
0	1537	1068.307420079818	9943.6361018786
0	1552	1078.474559287995	9943.0993028489
0	1567	1088.641698496172	9942.5625038192
0	1582	1098.808837704349	9942.0257047895
0	1597	1108.975976912526	9941.4889057597
0	1612	1119.143116120703	9940.95210673
0	1627	1129.31025532888	9940.4153077003
0	1642	1139.477394537057	9939.8785086705
0	1657	1149.644533745234	9939.3417096408
0	1672	1159.811672953411	9938.8049106111
0	1687	1169.978812161588	9938.2681115814
0	1702	1180.145951369765	9937.7313125516
0	1717	1190.313090577942	9937.1945135219
0	1729	1200.480229786119	9936.6577144922
0	1744	1210.647368994296	9936.1209154625
0	1759	1220.814508202473	9935.5841164327
0	1774	1230.98164741065	9935.047317403
0	1789	1241.148786618827	9934.5105183733
0	1804	1251.315925827004	9933.9737193435
0	1819	1261.483065035181	9933.4369203138
0	1834	1271.650204243358	9932.9001212841
0	1849	1281.817343451535	9932.3633222544
0	1861	1291.984482659712	9931.8265232246
0	1876	1302.151621867889	9931.2897241949
0	1891	1312.318761076066	9930.7529251652
0	1906	1322.485900284243	9930.2161261355
0	1921	1332.65303949242	9929.6793271057
0	1936	1342.820178700597	9929.142528076
0	1951	1352.987317908774	9928.6057290463
0	1966	1363.154457116951	9928.0689300165
0	1981	1373.321596325128	9927.5321309868
0	1996	1383.488735533305	9926.9953319571
0	2011	1393.655874741482	9926.4585329274
0	2023	1403.823013949659	9925.9217338976
0	2038	1413.990153157836	9925.3849348679
0	2053	1424.157292366013	9924.8481358382
0	2068	1434.32443157419	9924.3113368085
0	2083	1444.491570782367	9923.7745377787
0	2098	1454.658709990544	9923.237738749
0	2113	1464.825849198721	9922.7009397193
0	2128	1474.992988406898	9922.1641406895
0	2140	1485.160127615075	9921.6273416598
0	2155	1495.327266823252	9921.0905426301
0	2170	1505.494406031429	9920.5537436004
0	2185	1515.661545239606	9920.0169445706
0	2200	1525.828684447783	9919.4801455409
0	2215	1535.99582365596	9918.9433465112
0	2230	1546.162962864137	9918.4065474815
0	2245	1556.330102072314	9917.8697484517
0	2260	1566.497241280491	9917.332949422
0	2275	1576.664380488668	9916.7961503923
0	2290	1586.831519696845	9916.2593513625
0	2305	1596.998658905022	9915.7225523328
0	2320	1607.165798113199	9915.1857533031
0	2332	1617.332937321376	9914.6489542734
0	2347	1627.500076529553	9914.1121552436
0	2362	1637.66721573773	9913.5753562139
0	2377	1647.834354945907	9913.0385571842
0	2392	1658.001494154084	9912.5017581545
0	2407	1668.168633362261	9911.9649591247
0	2422	1678.335772570438	9911.428160095
0	2434	1688.502911778615	9910.8913610653
0	2449	1698.670050986792	9910.3545620355
0	2464	1708.837190194969	9909.8177630058
0	2479	1719.004329403146	9909.2809639761
0	2494	1729.171468611323	9908.7441649464
0	2509	1739.3386078195	9908.2073659166
0	2524	1749.505747027677	9907.6705668869
0	2536	1759.672886235854	9907.1337678572
0	2551	1769.840025444031	9906.5969688275
0	2566	1780.007164652208	9906.0601697977
0	2581	1790.174303860385	9905.523370768
0	2596	1800.341443068562	9904.9865717383
0	2611	1810.508582276739	9904.4497727085
0	2623	1820.675721484916	9903.9129736788
0	2638	1830.842860693093	9903.3761746491
0	2653	1841.00999990127	9902.8393756194
0	2668	1851.177139109447	9902.3025765896
0	2683	1861.344278317624	9901.7657775599
0	2698	1871.511417525801	9901.2289785302
0	2713	1881.678556733978	9900.6921795005
0	2728	1891.845695942155	9900.1553804707
0	2743	1902.012835150332	9899.618581441
0	2758	1912.179974358509	9899.0817824113
0	2773	1922.347113566686	9898.5449833815
0	2788	1932.514252774863	9898.0081843518
0	2803	1942.68139198304	9897.4713853221
0	2818	1952.848531191217	9896.9345862924
0	2833	1963.015670399394	9896.3977872626
0	2848	1973.182809607571	9895.8609882329
0	2863	1983.349948815748	9895.3241892032
0	2878	1993.517088023925	9894.7873901735
0	2893	2003.684227232102	9894.2505911437
0	2908	2013.851366440279	9893.713792114
0	2923	2024.018505648456	9893.1769930843
0	2935	2034.185644856633	9892.6401940545
0	2950	2044.35278406481	9892.1033950248
0	2965	2054.519923272987	9891.5665959951
0	2980	2064.687062481164	9891.0297969654
0	2995	2074.854201689341	9890.4929979356
0	3010	2085.021340897518	9889.9561989059
0	3025	2095.188480105695	9889.4193998762
0	3040	2105.355619313872	9888.8826008465
0	3055	2115.522758522049	9888.3458018167
0	3070	2125.689897730226	9887.809002787
0	3085	2135.857036938403	9887.2722037573
0	3100	2146.02417614658	9886.7354047275
0	3115	2156.191315354757	9886.1986056978
0	3130	2166.358454562934	9885.6618066681
0	3145	2176.525593771111	9885.1250076384
0	3160	2186.692732979288	9884.5882086086
0	3175	2196.859872187465	9884.0514095789
0	3190	2207.027011395642	9883.5146105492
0	3205	2217.194150603819	9882.9778115195
0	3217	2227.361289811996	9882.4410124897
0	3232	2237.528429020173	9881.90421346
0	3244	2247.69556822835	9881.3674144303
0	3259	2257.862707436527	9880.8306154005
0	3274	2268.029846644704	9880.2938163708
0	3289	2278.196985852881	9879.7570173411
0	3304	2288.364125061058	9879.2202183114
0	3319	2298.531264269235	9878.6834192816
0	3334	2308.698403477412	9878.1466202519
0	3349	2318.865542685589	9877.6098212222
0	3364	2329.032681893766	9877.0730221925
0	3379	2339.199821101943	9876.5362231627
0	3394	2349.36696031012	9875.999424133
0	3409	2359.534099518297	9875.4626251033
0	3424	2369.701238726474	9874.9258260735
0	3439	2379.868377934651	9874.3890270438
0	3454	2390.035517142828	9873.8522280141
0	3469	2400.202656351005	9873.3154289844
0	3484	2410.369795559182	9872.7786299546
0	3499	2420.536934767359	9872.2418309249
0	3514	2430.704073975536	9871.7050318952
0	3529	2440.871213183713	9871.1682328655
0	3541	2451.03835239189	9870.6314338357
0	3556	2461.205491600067	9870.094634806
0	3571	2471.372630808244	9869.5578357763
0	3586	2481.539770016421	9869.0210367465
0	3601	2491.706909224598	9868.4842377168
0	3616	2501.874048432775	9867.9474386871
0	3631	2512.041187640952	9867.4106396574
0	3646	2522.208326849129	9866.8738406276
0	3661	2532.375466057306	9866.3370415979
0	3676	2542.542605265483	9865.8002425682
0	3691	2552.70974447366	9865.2634435385
0	3706	2562.876883681837	9864.7266445087
0	3721	2573.044022890014	9864.189845479
0	3736	2583.211162098191	9863.6530464493
0	3748	2593.378301306368	9863.1162474195
0	3763	2603.545440514545	9862.5794483898
0	3778	2613.712579722722	9862.0426493601
0	3793	2623.879718930899	9861.5058503304
0	3808	2634.046858139076	9860.9690513006
0	3823	2644.213997347253	9860.4322522709
0	3838	2654.38113655543	9859.8954532412
0	3850	2664.548275763607	9859.3586542115
0	3865	2674.715414971784	9858.8218551817
0	3880	2684.882554179961	9858.285056152
0	3892	2695.049693388138	9857.7482571223
0	3907	2705.216832596315	9857.2114580925
0	3922	2715.383971804492	9856.6746590628
0	3937	2725.551111012669	9856.1378600331
0	3952	2735.718250220846	9855.6010610034
0	3967	2745.885389429023	9855.0642619736
0	3982	2756.0525286372	9854.5274629439
0	3997	2766.219667845377	9853.9906639142
0	4012	2776.386807053554	9853.4538648845
0	4027	2786.553946261731	9852.9170658547
0	4042	2796.721085469908	9852.380266825
0	4057	2806.888224678085	9851.8434677953
0	4072	2817.055363886262	9851.3066687655
0	4087	2827.222503094439	9850.7698697358
0	4102	2837.389642302616	9850.2330707061
0	4117	2847.556781510793	9849.6962716764
0	4132	2857.72392071897	9849.1594726466
0	4144	2867.891059927147	9848.6226736169
0	4159	2878.058199135324	9848.0858745872
0	4174	2888.225338343501	9847.5490755575
0	4189	2898.392477551678	9847.0122765277
0	4204	2908.559616759855	9846.475477498
0	4219	2918.726755968032	9845.9386784683
0	4234	2928.893895176209	9845.4018794385
0	4249	2939.061034384386	9844.8650804088
0	4264	2949.228173592563	9844.3282813791
0	4279	2959.39531280074	9843.7914823494
0	4294	2969.562452008917	9843.2546833196
0	4309	2979.729591217094	9842.7178842899
0	4324	2989.896730425271	9842.1810852602
0	4339	3000.063869633448	9841.6442862305
0	4354	3010.231008841625	9841.1074872007
0	4369	3020.398148049802	9840.570688171
0	4384	3030.565287257979	9840.0338891413
0	4399	3040.732426466156	9839.4970901115
0	4414	3050.899565674333	9838.9602910818
0	4429	3061.06670488251	9838.4234920521
0	4444	3071.233844090687	9837.8866930224
0	4456	3081.400983298864	9837.3498939926
0	4471	3091.568122507041	9836.8130949629
0	4486	3101.735261715218	9836.2762959332
0	4501	3111.902400923395	9835.7394969035
0	4516	3122.069540131572	9835.2026978737
0	4531	3132.236679339749	9834.665898844
0	4546	3142.403818547926	9834.1290998143
0	4561	3152.570957756103	9833.5923007845
0	4576	3162.73809696428	9833.0555017548
0	4588	3172.905236172457	9832.5187027251
0	4603	3183.072375380634	9831.9819036954
0	4618	3193.239514588811	9831.4451046656
0	4633	3203.406653796988	9830.9083056359
0	4648	3213.573793005165	9830.3715066062
0	4663	3223.740932213342	9829.8347075765
0	4678	3233.908071421519	9829.2979085467
0	4693	3244.075210629696	9828.761109517
0	4708	3254.242349837873	9828.2243104873
0	4723	3264.40948904605	9827.6875114575
0	4738	3274.576628254227	9827.1507124278
0	4753	3284.743767462404	9826.6139133981
0	4765	3294.910906670581	9826.0771143684
0	4780	3305.078045878758	9825.5403153386
0	4795	3315.245185086935	9825.0035163089
0	4810	3325.412324295112	9824.4667172792
0	4825	3335.579463503289	9823.9299182495
0	4840	3345.746602711466	9823.3931192197
0	4855	3355.913741919643	9822.85632019
0	4870	3366.08088112782	9822.3195211603
0	4885	3376.248020335997	9821.7827221305
0	4900	3386.415159544174	9821.2459231008
0	4915	3396.582298752351	9820.7091240711
0	4930	3406.749437960528	9820.1723250414
0	4942	3416.916577168705	9819.6355260116
0	4957	3427.083716376882	9819.0987269819
0	4972	3437.250855585059	9818.5619279522
0	4987	3447.417994793236	9818.0251289225
0	5002	3457.585134001413	9817.4883298927
0	5017	3467.75227320959	9816.951530863
0	5032	3477.919412417767	9816.4147318333
0	5047	3488.086551625944	9815.8779328035
0	5056	3498.253690834121	9815.3411337738
0	5071	3508.420830042298	9814.8043347441
0	5086	3518.587969250475	9814.2675357144
0	5101	3528.755108458652	9813.7307366846
0	5116	3538.922247666829	9813.1939376549
0	5131	3549.089386875006	9812.6571386252
0	5146	3559.256526083183	9812.1203395955
0	5161	3569.42366529136	9811.5835405657
0	5176	3579.590804499537	9811.046741536
0	5191	3589.757943707714	9810.5099425063
0	5206	3599.925082915891	9809.9731434765
0	5221	3610.092222124068	9809.4363444468
0	5236	3620.259361332245	9808.8995454171
0	5251	3630.426500540422	9808.3627463874
0	5263	3640.593639748599	9807.8259473576
0	5278	3650.760778956776	9807.2891483279
0	5293	3660.927918164953	9806.7523492982
0	5308	3671.09505737313	9806.2155502685
0	5323	3681.262196581307	9805.6787512387
0	5338	3691.429335789484	9805.141952209
0	5353	3701.596474997661	9804.6051531793
0	5365	3711.763614205838	9804.0683541495
0	5380	3721.930753414015	9803.5315551198
0	5395	3732.097892622192	9802.9947560901
0	5410	3742.265031830369	9802.4579570604
0	5425	3752.432171038546	9801.9211580306
0	5440	3762.599310246723	9801.3843590009
0	5455	3772.7664494549	9800.8475599712
0	5470	3782.933588663077	9800.3107609415
0	5485	3793.100727871254	9799.7739619117
0	5500	3803.267867079431	9799.237162882
0	5515	3813.435006287608	9798.7003638523
0	5530	3823.602145495785	9798.1635648225
0	5545	3833.769284703962	9797.6267657928
0	5560	3843.936423912139	9797.0899667631
0	5575	3854.103563120316	9796.5531677334
0	5590	3864.270702328493	9796.0163687036
0	5605	3874.43784153667	9795.4795696739
0	5620	3884.604980744847	9794.9427706442
0	5635	3894.772119953024	9794.4059716145
0	5650	3904.939259161201	9793.8691725847
0	5662	3915.106398369378	9793.332373555
0	5677	3925.273537577555	9792.7955745253
0	5692	3935.440676785732	9792.2587754955
0	5707	3945.607815993909	9791.7219764658
0	5722	3955.774955202086	9791.1851774361
0	5737	3965.942094410263	9790.6483784064
0	5752	3976.10923361844	9790.1115793766
0	5767	3986.276372826617	9789.5747803469
0	5782	3996.443512034794	9789.0379813172
0	5797	4006.610651242971	9788.5011822875
0	5812	4016.777790451148	9787.9643832577
0	5827	4026.944929659325	9787.427584228
0	5842	4037.112068867502	9786.8907851983
0	5857	4047.279208075679	9786.3539861685
0	5872	4057.446347283856	9785.8171871388
0	5887	4067.613486492033	9785.2803881091
0	5902	4077.78062570021	9784.7435890794
0	5917	4087.947764908387	9784.2067900496
0	5932	4098.114904116564	9783.6699910199
0	5944	4108.282043324741	9783.1331919902
0	5959	4118.449182532918	9782.5963929605
0	5971	4128.616321741095	9782.0595939307
0	5986	4138.783460949272	9781.522794901
0	6001	4148.950600157449	9780.9859958713
0	6016	4159.117739365626	9780.4491968415
0	6031	4169.284878573803	9779.9123978118
0	6046	4179.45201778198	9779.3755987821
0	6061	4189.619156990157	9778.8387997524
0	6076	4199.786296198334	9778.3020007226
0	6091	4209.953435406511	9777.7652016929
0	6106	4220.120574614688	9777.2284026632
0	6121	4230.287713822865	9776.6916036335
0	6136	4240.454853031042	9776.1548046037
0	6151	4250.621992239219	9775.618005574
0	6166	4260.789131447396	9775.0812065443
0	6181	4270.956270655573	9774.5444075145
0	6196	4281.12340986375	9774.0076084848
0	6211	4291.290549071927	9773.4708094551
0	6226	4301.457688280104	9772.9340104254
0	6241	4311.624827488281	9772.3972113956
0	6256	4321.791966696458	9771.8604123659
0	6268	4331.959105904635	9771.3236133362
0	6283	4342.126245112812	9770.7868143065
0	6298	4352.293384320989	9770.2500152767
0	6313	4362.460523529166	9769.713216247
0	6328	4372.627662737343	9769.1764172173
0	6343	4382.79480194552	9768.6396181875
0	6358	4392.961941153697	9768.1028191578
0	6370	4403.129080361874	9767.5660201281
0	6385	4413.296219570051	9767.0292210984
0	6400	4423.463358778228	9766.4924220686
0	6415	4433.630497986405	9765.9556230389
0	6430	4443.797637194582	9765.4188240092
0	6445	4453.964776402759	9764.8820249795
0	6460	4464.131915610936	9764.3452259497
0	6475	4474.299054819113	9763.80842692
0	6490	4484.46619402729	9763.2716278903
0	6505	4494.633333235467	9762.7348288605
0	6520	4504.800472443644	9762.1980298308
0	6535	4514.967611651821	9761.6612308011
0	6550	4525.134750859998	9761.1244317714
0	6565	4535.301890068175	9760.5876327416
0	6577	4545.469029276352	9760.0508337119
0	6592	4555.636168484529	9759.5140346822
0	6607	4565.803307692706	9758.9772356525
0	6619	4575.970446900883	9758.4404366227
0	6634	4586.13758610906	9757.903637593
0	6649	4596.304725317237	9757.3668385633
0	6664	4606.471864525414	9756.8300395336
0	6679	4616.639003733591	9756.2932405038
0	6694	4626.806142941768	9755.7564414741
0	6709	4636.973282149945	9755.2196424444
0	6724	4647.140421358122	9754.6828434146
0	6739	4657.307560566299	9754.1460443849
0	6754	4667.474699774476	9753.6092453552
0	6769	4677.641838982653	9753.0724463255
0	6784	4687.80897819083	9752.5356472957
0	6799	4697.976117399007	9751.998848266
0	6814	4708.143256607184	9751.4620492363
0	6829	4718.310395815361	9750.9252502066
0	6844	4728.477535023538	9750.3884511768
0	6859	4738.644674231715	9749.8516521471
0	6874	4748.811813439892	9749.3148531174
0	6886	4758.978952648069	9748.7780540876
0	6901	4769.146091856246	9748.2412550579
0	6916	4779.313231064423	9747.7044560282
0	6931	4789.4803702726	9747.1676569985
0	6946	4799.647509480777	9746.6308579687
0	6961	4809.814648688954	9746.094058939
0	6976	4819.981787897131	9745.5572599093
0	6991	4830.148927105308	9745.0204608796
0	7006	4840.316066313485	9744.4836618498
0	7021	4850.483205521662	9743.9468628201
0	7036	4860.650344729839	9743.4100637904
0	7051	4870.817483938016	9742.8732647606
0	7066	4880.984623146193	9742.3364657309
0	7081	4891.15176235437	9741.7996667012
0	7096	4901.318901562547	9741.2628676715
0	7111	4911.486040770724	9740.7260686417
0	7126	4921.653179978901	9740.189269612
0	7141	4931.820319187078	9739.6524705823
0	7156	4941.987458395255	9739.1156715526
0	7171	4952.154597603432	9738.5788725228
0	7183	4962.321736811609	9738.0420734931
0	7198	4972.488876019786	9737.5052744634
0	7213	4982.656015227963	9736.9684754336
0	7228	4992.82315443614	9736.4316764039
0	7243	5002.990293644317	9735.8948773742
0	7258	5013.157432852494	9735.3580783445
0	7273	5023.324572060671	9734.8212793147
0	7288	5033.491711268848	9734.284480285
0	7300	5043.658850477025	9733.7476812553
0	7315	5053.825989685202	9733.2108822256
0	7330	5063.993128893379	9732.6740831958
0	7345	5074.160268101556	9732.1372841661
0	7360	5084.327407309733	9731.6004851364
0	7375	5094.49454651791	9731.0636861066
0	7390	5104.661685726087	9730.5268870769
0	7405	5114.828824934264	9729.9900880472
0	7420	5124.995964142441	9729.4532890175
0	7435	5135.163103350618	9728.9164899877
0	7450	5145.330242558795	9728.379690958
0	7465	5155.497381766972	9727.8428919283
0	7480	5165.664520975149	9727.3060928986
0	7492	5175.831660183326	9726.7692938688
0	7507	5185.998799391503	9726.2324948391
0	7522	5196.16593859968	9725.6956958094
0	7537	5206.333077807857	9725.1588967796
0	7552	5216.500217016034	9724.6220977499
0	7567	5226.667356224211	9724.0852987202
0	7582	5236.834495432388	9723.5484996905
0	7597	5247.001634640565	9723.0117006607
0	7612	5257.168773848742	9722.474901631
0	7627	5267.335913056919	9721.9381026013
0	7642	5277.503052265096	9721.4013035716
0	7657	5287.670191473273	9720.8645045418
0	7672	5297.83733068145	9720.3277055121
0	7684	5308.004469889627	9719.7909064824
0	7699	5318.171609097804	9719.2541074526
0	7714	5328.338748305981	9718.7173084229
0	7726	5338.505887514158	9718.1805093932
0	7741	5348.673026722335	9717.6437103635
0	7756	5358.840165930512	9717.1069113337
0	7771	5369.007305138689	9716.570112304
0	7783	5379.174444346866	9716.0333132743
0	7798	5389.341583555043	9715.4965142446
0	7813	5399.50872276322	9714.9597152148
0	7828	5409.675861971397	9714.4229161851
0	7843	5419.843001179574	9713.8861171554
0	7858	5430.010140387751	9713.3493181256
0	7873	5440.177279595928	9712.8125190959
0	7888	5450.344418804105	9712.2757200662
0	7903	5460.511558012282	9711.7389210365
0	7918	5470.678697220459	9711.2021220067
0	7933	5480.845836428636	9710.665322977
0	7948	5491.012975636813	9710.1285239473
0	7963	5501.18011484499	9709.5917249176
0	7975	5511.347254053167	9709.0549258878
0	7990	5521.514393261344	9708.5181268581
0	8005	5531.681532469521	9707.9813278284
0	8020	5541.848671677698	9707.4445287986
0	8035	5552.015810885875	9706.9077297689
0	8050	5562.182950094052	9706.3709307392
0	8065	5572.350089302229	9705.8341317095
0	8080	5582.517228510406	9705.2973326797
0	8092	5592.684367718583	9704.76053365
0	8107	5602.85150692676	9704.2237346203
0	8122	5613.018646134937	9703.6869355906
0	8137	5623.185785343114	9703.1501365608
0	8152	5633.352924551291	9702.6133375311
0	8167	5643.520063759468	9702.0765385014
0	8182	5653.687202967645	9701.5397394716
0	8197	5663.854342175822	9701.0029404419
0	8212	5674.021481383999	9700.4661414122
0	8227	5684.188620592176	9699.9293423825
0	8242	5694.355759800353	9699.3925433527
0	8257	5704.52289900853	9698.855744323
0	8272	5714.690038216707	9698.3189452933
0	8287	5724.857177424884	9697.7821462636
0	8302	5735.024316633061	9697.2453472338
0	8317	5745.191455841238	9696.7085482041
0	8332	5755.358595049415	9696.1717491744
0	8347	5765.525734257592	9695.6349501446
0	8362	5775.692873465769	9695.0981511149
0	8377	5785.860012673946	9694.5613520852
0	8392	5796.027151882123	9694.0245530555
0	8404	5806.1942910903	9693.4877540257
0	8419	5816.361430298477	9692.950954996
0	8434	5826.528569506654	9692.4141559663
0	8449	5836.695708714831	9691.8773569366
0	8464	5846.862847923008	9691.3405579068
0	8479	5857.029987131185	9690.8037588771
0	8494	5867.197126339362	9690.2669598474
0	8509	5877.364265547539	9689.7301608176
0	8524	5887.531404755716	9689.1933617879
0	8539	5897.698543963893	9688.6565627582
0	8554	5907.86568317207	9688.1197637285
0	8569	5918.032822380247	9687.5829646987
0	8584	5928.199961588424	9687.046165669
0	8599	5938.367100796601	9686.5093666393
0	8614	5948.534240004778	9685.9725676096
0	8629	5958.701379212955	9685.4357685798
0	8644	5968.868518421132	9684.8989695501
0	8656	5979.035657629309	9684.3621705204
0	8671	5989.202796837486	9683.8253714906
0	8686	5999.369936045663	9683.2885724609
0	8698	6009.53707525384	9682.7517734312
0	8713	6019.704214462017	9682.2149744015
0	8728	6029.871353670194	9681.6781753717
0	8743	6040.038492878371	9681.141376342
0	8758	6050.205632086548	9680.6045773123
0	8773	6060.372771294725	9680.0677782826
0	8788	6070.539910502902	9679.5309792528
0	8803	6080.707049711079	9678.9941802231
0	8818	6090.874188919256	9678.4573811934
0	8833	6101.041328127433	9677.9205821636
0	8848	6111.20846733561	9677.3837831339
0	8863	6121.375606543787	9676.8469841042
0	8878	6131.542745751964	9676.3101850745
0	8893	6141.709884960141	9675.7733860447
0	8908	6151.877024168318	9675.236587015
0	8923	6162.044163376495	9674.6997879853
0	8938	6172.211302584672	9674.1629889556
0	8953	6182.378441792849	9673.6261899258
0	8968	6192.545581001026	9673.0893908961
0	8983	6202.712720209203	9672.5525918664
0	8998	6212.87985941738	9672.0157928366
0	9007	6223.046998625557	9671.4789938069
0	9022	6233.214137833734	9670.9421947772
0	9037	6243.381277041911	9670.4053957475
0	9052	6253.548416250088	9669.8685967177
0	9067	6263.715555458265	9669.331797688
0	9082	6273.882694666442	9668.7949986583
0	9097	6284.049833874619	9668.2581996286
0	9112	6294.216973082796	9667.7214005988
0	9127	6304.384112290973	9667.1846015691
0	9142	6314.55125149915	9666.6478025394
0	9157	6324.718390707327	9666.1110035096
0	9172	6334.885529915504	9665.5742044799
0	9187	6345.052669123681	9665.0374054502
0	9202	6355.219808331858	9664.5006064205
0	9217	6365.386947540035	9663.9638073907
0	9232	6375.554086748212	9663.427008361
0	9247	6385.721225956389	9662.8902093313
0	9262	6395.888365164566	9662.3534103016
0	9277	6406.055504372743	9661.8166112718
0	9292	6416.22264358092	9661.2798122421
0	9304	6426.389782789097	9660.7430132124
0	9319	6436.556921997274	9660.2062141826
0	9331	6446.724061205451	9659.6694151529
0	9346	6456.891200413628	9659.1326161232
0	9361	6467.058339621805	9658.5958170935
0	9376	6477.225478829982	9658.0590180637
0	9391	6487.392618038159	9657.522219034
0	9406	6497.559757246336	9656.9854200043
0	9421	6507.726896454513	9656.4486209746
0	9436	6517.89403566269	9655.9118219448
0	9451	6528.061174870867	9655.3750229151
0	9466	6538.228314079044	9654.8382238854
0	9481	6548.395453287221	9654.3014248556
0	9496	6558.562592495398	9653.7646258259
0	9511	6568.729731703575	9653.2278267962
0	9526	6578.896870911752	9652.6910277665
0	9541	6589.064010119929	9652.1542287367
0	9556	6599.231149328106	9651.617429707
0	9571	6609.398288536283	9651.0806306773
0	9586	6619.56542774446	9650.5438316476
0	9601	6629.732566952637	9650.0070326178
0	9613	6639.899706160814	9649.4702335881
0	9628	6650.066845368991	9648.9334345584
0	9643	6660.233984577168	9648.3966355286
0	9658	6670.401123785345	9647.8598364989
0	9673	6680.568262993522	9647.3230374692
0	9688	6690.735402201699	9646.7862384395
0	9703	6700.902541409876	9646.2494394097
0	9718	6711.069680618053	9645.71264038
0	9733	6721.23681982623	9645.1758413503
0	9748	6731.403959034407	9644.6390423206
0	9763	6741.571098242584	9644.1022432908
0	9778	6751.738237450761	9643.5654442611
0	9793	6761.905376658938	9643.0286452314
0	9808	6772.072515867115	9642.4918462016
0	9823	6782.239655075292	9641.9550471719
0	9838	6792.406794283469	9641.4182481422
0	9853	6802.573933491646	9640.8814491125
0	9868	6812.741072699823	9640.3446500827
0	9883	6822.908211908	9639.807851053
0	9898	6833.075351116177	9639.2710520233
0	9913	6843.242490324354	9638.7342529936
0	9925	6853.409629532531	9638.1974539638
0	9940	6863.576768740708	9637.6606549341
0	9955	6873.743907948885	9637.1238559044
0	9970	6883.911047157062	9636.5870568746
0	9985	6894.078186365239	9636.0502578449
0	10000	6904.245325573416	9635.5134588152
0	10015	6914.412464781593	9634.9766597855
0	10027	6924.57960398977	9634.4398607557
0	10042	6934.746743197947	9633.903061726
0	10057	6944.913882406124	9633.3662626963
0	10072	6955.081021614301	9632.8294636666
0	10087	6965.248160822478	9632.2926646368
0	10102	6975.415300030655	9631.7558656071
0	10117	6985.582439238832	9631.2190665774
0	10132	6995.749578447009	9630.6822675476
0	10147	7005.916717655186	9630.1454685179
0	10162	7016.083856863363	9629.6086694882
0	10177	7026.25099607154	9629.0718704585
0	10192	7036.418135279717	9628.5350714287
0	10207	7046.585274487894	9627.998272399
0	10219	7056.752413696071	9627.4614733693
0	10234	7066.919552904248	9626.9246743396