version 3
run General-3-20231219-07:31:01-20708
attr configname General
attr datetime 20231219-07:31:01
attr datetimef 20231219-073101
attr experiment General
attr inifile omnetpp.ini
attr iterationvars $0=89
attr iterationvarsd 89
attr iterationvarsf 89-
attr measurement $0=89
attr network Sensor_network
attr processid 20708
attr repetition 0
attr replication #0
attr resultdir results
attr runnumber 3
attr seedset 89
config network Sensor_network
config seed-set 89

vector 0 Sensor_network.sensor[2] Each_sensor_energy:vector ETV
attr recordingmode vector
attr source batterylevel
vector 1 Sensor_network.sensor[4] Each_sensor_energy:vector ETV
attr recordingmode vector
attr source batterylevel
vector 2 Sensor_network.sensor[1] Each_sensor_energy:vector ETV
attr recordingmode vector
attr source batterylevel
vector 3 Sensor_network.sensor[0] Each_sensor_energy:vector ETV
attr recordingmode vector
attr source batterylevel
vector 4 Sensor_network.sensor[3] Each_sensor_energy:vector ETV
attr recordingmode vector
attr source batterylevel
0	1	11.279685650952	9999.4504157505
0	16	21.29567572847	9998.900831501
0	31	31.311665805988	9998.3512472515
0	46	41.327655883506	9997.801663002
0	61	51.343645961024	9997.2520787525
0	76	61.359636038542	9996.702494503
0	91	71.37562611606	9996.1529102535
0	106	81.391616193578	9995.603326004
0	121	91.407606271096	9995.0537417545
0	136	101.423596348614	9994.504157505
0	151	111.439586426132	9993.9545732555
0	166	121.45557650365	9993.404989006
0	181	131.471566581168	9992.8554047565
0	196	141.487556658686	9992.305820507
0	211	151.503546736204	9991.7562362575
0	226	161.519536813722	9991.206652008
0	241	171.53552689124	9990.6570677585
0	256	181.551516968758	9990.107483509
0	271	191.567507046276	9989.5578992595
0	283	201.583497123794	9989.00831501
0	298	211.599487201312	9988.4587307605
0	313	221.61547727883	9987.909146511
0	328	231.631467356348	9987.3595622615
0	340	241.647457433866	9986.809978012
0	355	251.663447511384	9986.2603937625
0	370	261.679437588902	9985.710809513
0	385	271.69542766642	9985.1612252635
0	400	281.711417743938	9984.611641014
0	415	291.727407821456	9984.0620567645
0	430	301.743397898974	9983.512472515
0	445	311.759387976492	9982.9628882655
0	460	321.77537805401	9982.413304016
0	475	331.791368131528	9981.8637197665
0	490	341.807358209046	9981.314135517
0	505	351.823348286564	9980.7645512675
0	520	361.839338364082	9980.214967018
0	535	371.8553284416	9979.6653827685
0	550	381.871318519118	9979.115798519
0	562	391.887308596636	9978.5662142695
0	577	401.903298674154	9978.01663002
0	592	411.919288751672	9977.4670457705
0	607	421.93527882919	9976.917461521
0	622	431.951268906708	9976.3678772715
0	637	441.967258984226	9975.818293022
0	652	451.983249061744	9975.2687087725
0	667	461.999239139262	9974.719124523
0	679	472.01522921678	9974.1695402735
0	694	482.031219294298	9973.619956024
0	709	492.047209371816	9973.0703717745
0	724	502.063199449334	9972.520787525
0	739	512.079189526852	9971.9712032755
0	754	522.09517960437	9971.421619026
0	769	532.111169681888	9970.8720347765
0	784	542.127159759406	9970.322450527
0	799	552.143149836924	9969.7728662775
0	814	562.159139914442	9969.223282028
0	829	572.17512999196	9968.6736977785
0	841	582.191120069478	9968.124113529
0	856	592.207110146996	9967.5745292795
0	868	602.223100224514	9967.02494503
0	883	612.239090302032	9966.4753607805
0	898	622.25508037955	9965.925776531
0	913	632.271070457068	9965.3761922815
0	928	642.287060534586	9964.826608032
0	943	652.303050612104	9964.2770237825
0	958	662.319040689622	9963.727439533
0	973	672.33503076714	9963.1778552835
0	988	682.351020844658	9962.628271034
0	1000	692.367010922176	9962.0786867845
0	1015	702.383000999694	9961.529102535
0	1030	712.398991077212	9960.9795182855
0	1045	722.41498115473	9960.429934036
0	1060	732.430971232248	9959.8803497865
0	1075	742.446961309766	9959.330765537
0	1090	752.462951387284	9958.7811812875
0	1105	762.478941464802	9958.231597038
0	1117	772.49493154232	9957.6820127885
0	1132	782.510921619838	9957.132428539
0	1147	792.526911697356	9956.5828442895
0	1162	802.542901774874	9956.03326004
0	1177	812.558891852392	9955.4836757905
0	1192	822.57488192991	9954.934091541
0	1207	832.590872007428	9954.3845072915
0	1222	842.606862084946	9953.834923042
0	1237	852.622852162464	9953.2853387925
0	1252	862.638842239982	9952.735754543
0	1267	872.6548323175	9952.1861702935
0	1282	882.670822395018	9951.636586044
0	1297	892.686812472536	9951.0870017945
0	1312	902.702802550054	9950.537417545
0	1327	912.718792627572	9949.9878332955
0	1339	922.73478270509	9949.438249046
0	1354	932.750772782608	9948.8886647965
0	1369	942.766762860126	9948.339080547
0	1384	952.782752937644	9947.7894962975
0	1399	962.798743015162	9947.239912048
0	1411	972.81473309268	9946.6903277985
0	1426	982.830723170198	9946.140743549
0	1441	992.846713247716	9945.5911592995
0	1456	1002.862703325234	9945.04157505
0	1471	1012.878693402752	9944.4919908005
0	1486	1022.89468348027	9943.942406551
0	1501	1032.910673557788	9943.3928223015
0	1516	1042.926663635306	9942.843238052
0	1531	1052.942653712824	9942.2936538025
0	1546	1062.958643790342	9941.744069553
0	1561	1072.97463386786	9941.1944853035
0	1576	1082.990623945378	9940.644901054
0	1591	1093.006614022896	9940.0953168045
0	1606	1103.022604100414	9939.545732555
0	1618	1113.038594177932	9938.9961483055
0	1633	1123.05458425545	9938.446564056
0	1648	1133.070574332968	9937.8969798065
0	1660	1143.086564410486	9937.347395557
0	1675	1153.102554488004	9936.7978113075
0	1687	1163.118544565522	9936.248227058
0	1702	1173.13453464304	9935.6986428085
0	1717	1183.150524720558	9935.149058559
0	1732	1193.166514798076	9934.5994743095
0	1747	1203.182504875594	9934.04989006
0	1762	1213.198494953112	9933.5003058105
0	1777	1223.21448503063	9932.950721561
0	1792	1233.230475108148	9932.4011373115
0	1807	1243.246465185666	9931.851553062
0	1822	1253.262455263184	9931.3019688125
0	1837	1263.278445340702	9930.752384563
0	1852	1273.29443541822	9930.2028003135
0	1867	1283.310425495738	9929.653216064
0	1882	1293.326415573256	9929.1036318145
0	1897	1303.342405650774	9928.554047565
0	1912	1313.358395728292	9928.0044633155
0	1927	1323.37438580581	9927.454879066
0	1942	1333.390375883328	9926.9052948165
0	1957	1343.406365960846	9926.355710567
0	1966	1353.422356038364	9925.8061263175
0	1981	1363.438346115882	9925.256542068
0	1993	1373.4543361934	9924.7069578185
0	2008	1383.470326270918	9924.157373569
0	2023	1393.486316348436	9923.6077893195
0	2038	1403.502306425954	9923.05820507
0	2053	1413.518296503472	9922.5086208205
0	2068	1423.53428658099	9921.959036571
0	2083	1433.550276658508	9921.4094523215
0	2098	1443.566266736026	9920.859868072
0	2113	1453.582256813544	9920.3102838225
0	2128	1463.598246891062	9919.760699573
0	2143	1473.61423696858	9919.2111153235
0	2158	1483.630227046098	9918.661531074
0	2173	1493.646217123616	9918.1119468245
0	2188	1503.662207201134	9917.562362575
0	2203	1513.678197278652	9917.0127783255
0	2218	1523.69418735617	9916.463194076
0	2233	1533.710177433688	9915.9136098265
0	2245	1543.726167511206	9915.364025577
0	2260	1553.742157588724	9914.8144413275
0	2275	1563.758147666242	9914.264857078
0	2290	1573.77413774376	9913.7152728285
0	2305	1583.790127821278	9913.165688579
0	2317	1593.806117898796	9912.6161043295
0	2332	1603.822107976314	9912.06652008
0	2347	1613.838098053832	9911.5169358305
0	2362	1623.85408813135	9910.967351581
0	2377	1633.870078208868	9910.4177673315
0	2392	1643.886068286386	9909.868183082
0	2407	1653.902058363904	9909.3185988325
0	2422	1663.918048441422	9908.769014583
0	2437	1673.93403851894	9908.2194303335
0	2452	1683.950028596458	9907.669846084
0	2467	1693.966018673976	9907.1202618345
0	2482	1703.982008751494	9906.570677585
0	2497	1713.997998829012	9906.0210933355
0	2512	1724.01398890653	9905.471509086
0	2527	1734.029978984048	9904.9219248365
0	2539	1744.045969061566	9904.372340587
0	2554	1754.061959139084	9903.8227563375
0	2569	1764.077949216602	9903.273172088
0	2584	1774.09393929412	9902.7235878385
0	2599	1784.109929371638	9902.174003589
0	2614	1794.125919449156	9901.6244193395
0	2629	1804.141909526674	9901.07483509
0	2644	1814.157899604192	9900.5252508405
0	2656	1824.17388968171	9899.975666591
0	2671	1834.189879759228	9899.4260823415
0	2686	1844.205869836746	9898.876498092
0	2701	1854.221859914264	9898.3269138425
0	2716	1864.237849991782	9897.777329593
0	2731	1874.2538400693	9897.2277453435
0	2746	1884.269830146818	9896.678161094
0	2761	1894.285820224336	9896.1285768445
0	2776	1904.301810301854	9895.578992595
0	2791	1914.317800379372	9895.0294083455
0	2806	1924.33379045689	9894.479824096
0	2818	1934.349780534408	9893.9302398465
0	2833	1944.365770611926	9893.380655597
0	2848	1954.381760689444	9892.8310713475
0	2863	1964.397750766962	9892.281487098
0	2878	1974.41374084448	9891.7319028485
0	2893	1984.429730921998	9891.182318599
0	2908	1994.445720999516	9890.6327343495
0	2923	2004.461711077034	9890.0831501
0	2938	2014.477701154552	9889.5335658505
0	2953	2024.49369123207	9888.983981601
0	2968	2034.509681309588	9888.4343973515
0	2983	2044.525671387106	9887.884813102
0	2995	2054.541661464624	9887.3352288525
0	3010	2064.557651542142	9886.785644603
0	3025	2074.57364161966	9886.2360603535
0	3040	2084.589631697178	9885.686476104
0	3052	2094.605621774696	9885.1368918545
0	3067	2104.621611852214	9884.587307605
0	3082	2114.637601929732	9884.0377233555
0	3094	2124.65359200725	9883.488139106
0	3109	2134.669582084768	9882.9385548565
0	3124	2144.685572162286	9882.388970607
0	3139	2154.701562239804	9881.8393863575
0	3154	2164.717552317322	9881.289802108
0	3169	2174.73354239484	9880.7402178585
0	3184	2184.749532472358	9880.190633609
0	3199	2194.765522549876	9879.6410493595
0	3214	2204.781512627394	9879.09146511
0	3229	2214.797502704912	9878.5418808605
0	3244	2224.81349278243	9877.992296611
0	3259	2234.829482859948	9877.4427123615
0	3274	2244.845472937466	9876.893128112
0	3289	2254.861463014984	9876.3435438625
0	3304	2264.877453092502	9875.793959613
0	3316	2274.89344317002	9875.2443753635
0	3331	2284.909433247538	9874.694791114
0	3346	2294.925423325056	9874.1452068645
0	3361	2304.941413402574	9873.595622615
0	3376	2314.957403480092	9873.0460383655
0	3388	2324.97339355761	9872.496454116
0	3403	2334.989383635128	9871.9468698665
0	3418	2345.005373712646	9871.397285617
0	3433	2355.021363790164	9870.8477013675
0	3445	2365.037353867682	9870.298117118
0	3460	2375.0533439452	9869.7485328685
0	3475	2385.069334022718	9869.198948619
0	3490	2395.085324100236	9868.6493643695
0	3505	2405.101314177754	9868.09978012
0	3520	2415.117304255272	9867.5501958705
0	3535	2425.13329433279	9867.000611621
0	3550	2435.149284410308	9866.4510273715
0	3565	2445.165274487826	9865.901443122
0	3580	2455.181264565344	9865.3518588725
0	3595	2465.197254642862	9864.802274623
0	3610	2475.21324472038	9864.2526903735
0	3625	2485.229234797898	9863.703106124
0	3640	2495.245224875416	9863.1535218745
0	3652	2505.261214952934	9862.603937625
0	3664	2515.277205030452	9862.0543533755
0	3679	2525.29319510797	9861.504769126
0	3694	2535.309185185488	9860.9551848765
0	3709	2545.325175263006	9860.405600627
0	3724	2555.341165340524	9859.8560163775
0	3739	2565.357155418042	9859.306432128
0	3754	2575.37314549556	9858.7568478785
0	3769	2585.389135573078	9858.207263629
0	3784	2595.405125650596	9857.6576793795
0	3799	2605.421115728114	9857.10809513
0	3814	2615.437105805632	9856.5585108805
0	3829	2625.45309588315	9856.008926631
0	3844	2635.469085960668	9855.4593423815
0	3859	2645.485076038186	9854.909758132
0	3874	2655.501066115704	9854.3601738825
0	3889	2665.517056193222	9853.810589633
0	3904	2675.53304627074	9853.2610053835
0	3919	2685.549036348258	9852.711421134
0	3934	2695.565026425776	9852.1618368845
0	3946	2705.581016503294	9851.6122526349
0	3961	2715.597006580812	9851.0626683854
0	3973	2725.61299665833	9850.5130841359
0	3988	2735.628986735848	9849.9634998864
0	4003	2745.644976813366	9849.4139156369
0	4018	2755.660966890884	9848.8643313874
0	4033	2765.676956968402	9848.3147471379
0	4048	2775.69294704592	9847.7651628884
0	4063	2785.708937123438	9847.2155786389
0	4078	2795.724927200956	9846.6659943894
0	4093	2805.740917278474	9846.1164101399
0	4108	2815.756907355992	9845.5668258904
0	4123	2825.77289743351	9845.0172416409
0	4135	2835.788887511028	9844.4676573914
0	4150	2845.804877588546	9843.9180731419
0	4165	2855.820867666064	9843.3684888924
0	4180	2865.836857743582	9842.8189046429
0	4195	2875.8528478211	9842.2693203934
0	4210	2885.868837898618	9841.7197361439
0	4222	2895.884827976136	9841.1701518944
0	4237	2905.900818053654	9840.6205676449
0	4252	2915.916808131172	9840.0709833954
0	4267	2925.93279820869	9839.5213991459
0	4282	2935.948788286208	9838.9718148964
0	4297	2945.964778363726	9838.4222306469
0	4309	2955.980768441244	9837.8726463974
0	4324	2965.996758518762	9837.3230621479
0	4339	2976.01274859628	9836.7734778984
0	4354	2986.028738673798	9836.2238936489
0	4369	2996.044728751316	9835.6743093994
0	4384	3006.060718828834	9835.1247251499
0	4399	3016.076708906352	9834.5751409004
0	4414	3026.09269898387	9834.0255566509
0	4429	3036.108689061388	9833.4759724014
0	4444	3046.124679138906	9832.9263881519
0	4459	3056.140669216424	9832.3768039024
0	4474	3066.156659293942	9831.8272196529
0	4489	3076.17264937146	9831.2776354034
0	4504	3086.188639448978	9830.7280511539
0	4516	3096.204629526496	9830.1784669044
0	4531	3106.220619604014	9829.6288826549
0	4546	3116.236609681532	9829.0792984054
0	4561	3126.25259975905	9828.5297141559
0	4576	3136.268589836568	9827.9801299064
0	4591	3146.284579914086	9827.4305456569
0	4606	3156.300569991604	9826.8809614074
0	4621	3166.316560069122	9826.3313771579
0	4636	3176.33255014664	9825.7817929084
0	4648	3186.348540224158	9825.2322086589
0	4663	3196.364530301676	9824.6826244094
0	4678	3206.380520379194	9824.1330401599
0	4693	3216.396510456712	9823.5834559104
0	4708	3226.41250053423	9823.0338716609
0	4723	3236.428490611748	9822.4842874114
0	4738	3246.444480689266	9821.9347031619
0	4753	3256.460470766784	9821.3851189124
0	4768	3266.476460844302	9820.8355346629
0	4783	3276.49245092182	9820.2859504134
0	4795	3286.508440999338	9819.7363661639
0	4810	3296.524431076856	9819.1867819144
0	4825	3306.540421154374	9818.6371976649
0	4840	3316.556411231892	9818.0876134154
0	4855	3326.57240130941	9817.5380291659
0	4870	3336.588391386928	9816.9884449164
0	4885	3346.604381464446	9816.4388606669
0	4900	3356.620371541964	9815.8892764174
0	4915	3366.636361619482	9815.3396921679
0	4930	3376.652351697	9814.7901079184
0	4945	3386.668341774518	9814.2405236689
0	4960	3396.684331852036	9813.6909394194
0	4972	3406.700321929554	9813.1413551699
0	4987	3416.716312007072	9812.5917709204
0	5002	3426.73230208459	9812.0421866709
0	5017	3436.748292162108	9811.4926024214
0	5032	3446.764282239626	9810.9430181719
0	5047	3456.780272317144	9810.3934339224
0	5062	3466.796262394662	9809.8438496729
0	5074	3476.81225247218	9809.2942654234
0	5089	3486.828242549698	9808.7446811739
0	5104	3496.844232627216	9808.1950969244
0	5119	3506.860222704734	9807.6455126749
0	5134	3516.876212782252	9807.0959284254
0	5149	3526.89220285977	9806.5463441759
0	5164	3536.908192937288	9805.9967599264
0	5179	3546.924183014806	9805.4471756769
0	5194	3556.940173092324	9804.8975914274
0	5209	3566.956163169842	9804.3480071779
0	5224	3576.97215324736	9803.7984229284
0	5236	3586.988143324878	9803.2488386789
0	5251	3597.004133402396	9802.6992544294
0	5266	3607.020123479914	9802.1496701799
0	5278	3617.036113557432	9801.6000859304
0	5293	3627.05210363495	9801.0505016809
0	5305	3637.068093712468	9800.5009174314
0	5320	3647.084083789986	9799.9513331819
0	5335	3657.100073867504	9799.4017489324
0	5347	3667.116063945022	9798.8521646829
0	5362	3677.13205402254	9798.3025804334
0	5377	3687.148044100058	9797.7529961839
0	5392	3697.164034177576	9797.2034119344
0	5407	3707.180024255094	9796.6538276849
0	5422	3717.196014332612	9796.1042434354
0	5437	3727.21200441013	9795.5546591859
0	5452	3737.227994487648	9795.0050749364
0	5467	3747.243984565166	9794.4554906869
0	5482	3757.259974642684	9793.9059064374
0	5497	3767.275964720202	9793.3563221879
0	5512	3777.29195479772	9792.8067379384
0	5527	3787.307944875238	9792.2571536889
0	5542	3797.323934952756	9791.7075694394
0	5557	3807.339925030274	9791.1579851899
0	5572	3817.355915107792	9790.6084009404
0	5587	3827.37190518531	9790.0588166909
0	5602	3837.387895262828	9789.5092324414
0	5617	3847.403885340346	9788.9596481919
0	5629	3857.419875417864	9788.4100639424
0	5641	3867.435865495382	9787.8604796929
0	5656	3877.4518555729	9787.3108954434
0	5671	3887.467845650418	9786.7613111939
0	5686	3897.483835727936	9786.2117269444
0	5701	3907.499825805454	9785.6621426949
0	5716	3917.515815882972	9785.1125584454
0	5731	3927.53180596049	9784.5629741959
0	5746	3937.547796038008	9784.0133899464
0	5761	3947.563786115526	9783.4638056969
0	5776	3957.579776193044	9782.9142214474
0	5791	3967.595766270562	9782.3646371979
0	5806	3977.61175634808	9781.8150529484
0	5821	3987.627746425598	9781.2654686989
0	5836	3997.643736503116	9780.7158844494
0	5851	4007.659726580634	9780.1663001999
0	5866	4017.675716658152	9779.6167159504
0	5881	4027.69170673567	9779.0671317009
0	5896	4037.707696813188	9778.5175474514
0	5911	4047.723686890706	9777.9679632019
0	5923	4057.739676968224	9777.4183789524
0	5938	4067.755667045742	9776.8687947029
0	5953	4077.77165712326	9776.3192104534
0	5965	4087.787647200778	9775.7696262039
0	5980	4097.803637278296	9775.2200419544
0	5995	4107.819627355814	9774.6704577049
0	6010	4117.835617433332	9774.1208734554
0	6025	4127.85160751085	9773.5712892059
0	6040	4137.867597588368	9773.0217049564
0	6055	4147.883587665886	9772.4721207069
0	6070	4157.899577743404	9771.9225364574
0	6085	4167.915567820922	9771.3729522079
0	6100	4177.93155789844	9770.8233679584
0	6115	4187.947547975958	9770.2737837089
0	6130	4197.963538053476	9769.7241994594
0	6145	4207.979528130994	9769.1746152099
0	6160	4217.995518208512	9768.6250309604
0	6175	4228.01150828603	9768.0754467109
0	6190	4238.027498363548	9767.5258624614
0	6202	4248.043488441066	9766.9762782119
0	6217	4258.059478518584	9766.4266939624
0	6232	4268.075468596102	9765.8771097129
0	6247	4278.09145867362	9765.3275254634
0	6262	4288.107448751138	9764.7779412139
0	6277	4298.123438828656	9764.2283569644
0	6289	4308.139428906174	9763.6787727149
0	6304	4318.155418983692	9763.1291884654
0	6316	4328.17140906121	9762.5796042159
0	6331	4338.187399138728	9762.0300199664
0	6346	4348.203389216246	9761.4804357169
0	6361	4358.219379293764	9760.9308514674
0	6376	4368.235369371282	9760.3812672179
0	6391	4378.2513594488	9759.8316829684
0	6406	4388.267349526318	9759.2820987189
0	6421	4398.283339603836	9758.7325144694
0	6436	4408.299329681354	9758.1829302199
0	6451	4418.315319758872	9757.6333459704
0	6466	4428.33130983639	9757.0837617209
0	6481	4438.347299913908	9756.5341774714
0	6493	4448.363289991426	9755.9845932219
0	6508	4458.379280068944	9755.4350089724
0	6523	4468.395270146462	9754.8854247229
0	6538	4478.41126022398	9754.3358404734
0	6553	4488.427250301498	9753.7862562239
0	6568	4498.443240379016	9753.2366719744
0	6583	4508.459230456534	9752.6870877249
0	6598	4518.475220534052	9752.1375034754
0	6613	4528.49121061157	9751.5879192259
0	6625	4538.507200689088	9751.0383349764
0	6640	4548.523190766606	9750.4887507269
0	6655	4558.539180844124	9749.9391664774
0	6670	4568.555170921642	9749.3895822279
0	6685	4578.57116099916	9748.8399979784
0	6700	4588.587151076678	9748.2904137289
0	6715	4598.603141154196	9747.7408294794
0	6730	4608.619131231714	9747.1912452299
0	6745	4618.635121309232	9746.6416609804
0	6760	4628.65111138675	9746.0920767309
0	6772	4638.667101464268	9745.5424924814
0	6787	4648.683091541786	9744.9929082319
0	6802	4658.699081619304	9744.4433239824
0	6817	4668.715071696822	9743.8937397329
0	6832	4678.73106177434	9743.3441554834
0	6847	4688.747051851858	9742.7945712339
0	6862	4698.763041929376	9742.2449869844
0	6877	4708.779032006894	9741.6954027349
0	6892	4718.795022084412	9741.1458184854
0	6907	4728.81101216193	9740.5962342359
0	6922	4738.827002239448	9740.0466499864
0	6937	4748.842992316966	9739.4970657369
0	6952	4758.858982394484	9738.9474814874
0	6964	4768.874972472002	9738.3978972379
0	6979	4778.89096254952	9737.8483129884
0	6994	4788.906952627038	9737.2987287389
0	7009	4798.922942704556	9736.7491444894
0	7024	4808.938932782074	9736.1995602399
0	7039	4818.954922859592	9735.6499759904
0	7051	4828.97091293711	9735.1003917409
0	7066	4838.986903014628	9734.5508074914
0	7081	4849.002893092146	9734.0012232419
0	7093	4859.018883169664	9733.4516389924
0	7108	4869.034873247182	9732.9020547429
0	7123	4879.0508633247	9732.3524704934
0	7138	4889.066853402218	9731.8028862439
0	7153	4899.082843479736	9731.2533019944
0	7168	4909.098833557254	9730.7037177449
0	7183	4919.114823634772	9730.1541334954
0	7198	4929.13081371229	9729.6045492459
0	7213	4939.146803789808	9729.0549649964
0	7228	4949.162793867326	9728.5053807469
0	7243	4959.178783944844	9727.9557964974
0	7258	4969.194774022362	9727.4062122479
0	7273	4979.21076409988	9726.8566279984
0	7285	4989.226754177398	9726.3070437489
0	7300	4999.242744254916	9725.7574594994
0	7315	5009.258734332434	9725.2078752499
0	7327	5019.274724409952	9724.6582910004
0	7342	5029.29071448747	9724.1087067509
0	7357	5039.306704564988	9723.5591225014
0	7372	5049.322694642506	9723.0095382519
0	7387	5059.338684720024	9722.4599540024
0	7399	5069.354674797542	9721.9103697529
0	7414	5079.37066487506	9721.3607855034
0	7429	5089.386654952578	9720.8112012539
0	7444	5099.402645030096	9720.2616170044
0	7459	5109.418635107614	9719.7120327549
0	7474	5119.434625185132	9719.1624485054
0	7489	5129.45061526265	9718.6128642559
0	7504	5139.466605340168	9718.0632800064
0	7519	5149.482595417686	9717.5136957569
0	7534	5159.498585495204	9716.9641115074
0	7549	5169.514575572722	9716.4145272579
0	7564	5179.53056565024	9715.8649430084
0	7579	5189.546555727758	9715.3153587589
0	7594	5199.562545805276	9714.7657745094
0	7609	5209.578535882794	9714.2161902599
0	7618	5219.594525960312	9713.6666060104
0	7633	5229.61051603783	9713.1170217609
0	7648	5239.626506115348	9712.5674375114
0	7663	5249.642496192866	9712.0178532619
0	7678	5259.658486270384	9711.4682690124
0	7693	5269.674476347902	9710.9186847629
0	7708	5279.69046642542	9710.3691005134
0	7723	5289.706456502938	9709.8195162639
0	7738	5299.722446580456	9709.2699320144
0	7753	5309.738436657974	9708.7203477649
0	7768	5319.754426735492	9708.1707635154
0	7783	5329.77041681301	9707.6211792659
0	7798	5339.786406890528	9707.0715950164
0	7813	5349.802396968046	9706.5220107669
0	7828	5359.818387045564	9705.9724265174
0	7843	5369.834377123082	9705.4228422679
0	7858	5379.8503672006	9704.8732580184
0	7873	5389.866357278118	9704.3236737689
0	7888	5399.882347355636	9703.7740895194
0	7900	5409.898337433154	9703.2245052699
0	7915	5419.914327510672	9702.6749210204
0	7930	5429.93031758819	9702.1253367709
0	7942	5439.946307665708	9701.5757525214
0	7957	5449.962297743226	9701.0261682719
0	7972	5459.978287820744	9700.4765840224
0	7987	5469.994277898262	9699.9269997729
0	8002	5480.01026797578	9699.3774155234
0	8017	5490.026258053298	9698.8278312739
0	8032	5500.042248130816	9698.2782470244
0	8047	5510.058238208334	9697.7286627749
0	8062	5520.074228285852	9697.1790785254
0	8077	5530.09021836337	9696.6294942759
0	8092	5540.106208440888	9696.0799100264
0	8107	5550.122198518406	9695.5303257769
0	8122	5560.138188595924	9694.9807415274
0	8137	5570.154178673442	9694.4311572779
0	8152	5580.17016875096	9693.8815730284
0	8167	5590.186158828478	9693.3319887789
0	8179	5600.202148905996	9692.7824045294
0	8194	5610.218138983514	9692.2328202799
0	8209	5620.234129061032	9691.6832360304
0	8224	5630.25011913855	9691.1336517809
0	8239	5640.266109216068	9690.5840675314
0	8254	5650.282099293586	9690.0344832819
0	8269	5660.298089371104	9689.4848990324
0	8281	5670.314079448622	9688.9353147829
0	8296	5680.33006952614	9688.3857305334
0	8311	5690.346059603658	9687.8361462839
0	8326	5700.362049681176	9687.2865620344
0	8341	5710.378039758694	9686.7369777849
0	8356	5720.394029836212	9686.1873935354
0	8371	5730.41001991373	9685.6378092859
0	8386	5740.426009991248	9685.0882250364
0	8401	5750.442000068766	9684.5386407869
0	8416	5760.457990146284	9683.9890565374
0	8431	5770.473980223802	9683.4394722879
0	8446	5780.48997030132	9682.8898880384
0	8458	5790.505960378838	9682.3403037889
0	8473	5800.521950456356	9681.7907195394
0	8488	5810.537940533874	9681.2411352899
0	8500	5820.553930611392	9680.6915510404
0	8515	5830.56992068891	9680.1419667909
0	8530	5840.585910766428	9679.5923825414
0	8545	5850.601900843946	9679.0427982919
0	8560	5860.617890921464	9678.4932140424
0	8575	5870.633880998982	9677.9436297929
0	8590	5880.6498710765	9677.3940455434
0	8602	5890.665861154018	9676.8444612939
0	8617	5900.681851231536	9676.2948770444
0	8632	5910.697841309054	9675.7452927949
0	8647	5920.713831386572	9675.1957085454
0	8662	5930.72982146409	9674.6461242959
0	8677	5940.745811541608	9674.0965400464
0	8692	5950.761801619126	9673.5469557969
0	8707	5960.777791696644	9672.9973715474
0	8722	5970.793781774162	9672.4477872979
0	8737	5980.80977185168	9671.8982030484
0	8749	5990.825761929198	9671.3486187989
0	8764	6000.841752006716	9670.7990345494
0	8779	6010.857742084234	9670.2494502999
0	8794	6020.873732161752	9669.6998660504
0	8809	6030.88972223927	9669.1502818009
0	8824	6040.905712316788	9668.6006975514
0	8839	6050.921702394306	9668.0511133019
0	8854	6060.937692471824	9667.5015290524
0	8869	6070.953682549342	9666.9519448029
0	8884	6080.96967262686	9666.4023605534
0	8899	6090.985662704378	9665.8527763039
0	8914	6101.001652781896	9665.3031920544
0	8926	6111.017642859414	9664.7536078049
0	8938	6121.033632936932	9664.2040235554
0	8953	6131.04962301445	9663.6544393059
0	8968	6141.065613091968	9663.1048550564
0	8983	6151.081603169486	9662.5552708069
0	8998	6161.097593247004	9662.0056865574
0	9013	6171.113583324522	9661.4561023079
0	9025	6181.12957340204	9660.9065180584
0	9040	6191.145563479558	9660.3569338089
0	9055	6201.161553557076	9659.8073495594
0	9070	6211.177543634594	9659.2577653099
0	9085	6221.193533712112	9658.7081810604
0	9100	6231.20952378963	9658.1585968109
0	9115	6241.225513867148	9657.6090125614
0	9130	6251.241503944666	9657.0594283119
0	9145	6261.257494022184	9656.5098440624
0	9160	6271.273484099702	9655.9602598129
0	9175	6281.28947417722	9655.4106755634
0	9190	6291.305464254738	9654.8610913139
0	9205	6301.321454332256	9654.3115070644
0	9220	6311.337444409774	9653.7619228149
0	9235	6321.353434487292	9653.2123385654
0	9250	6331.36942456481	9652.6627543159
0	9265	6341.385414642328	9652.1131700664
0	9277	6351.401404719846	9651.5635858169
0	9292	6361.417394797364	9651.0140015674
0	9304	6371.433384874882	9650.4644173179
0	9319	6381.4493749524	9649.9148330684
0	9334	6391.465365029918	9649.3652488189
0	9349	6401.481355107436	9648.8156645694
0	9364	6411.497345184954	9648.2660803199
0	9379	6421.513335262472	9647.7164960704
0	9394	6431.52932533999	9647.1669118209
0	9409	6441.545315417508	9646.6173275714
0	9424	6451.561305495026	9646.0677433219
0	9439	6461.577295572544	9645.5181590724
0	9454	6471.593285650062	9644.9685748229
0	9469	6481.60927572758	9644.4189905734
0	9484	6491.625265805098	9643.8694063239
0	9499	6501.641255882616	9643.3198220744
0	9514	6511.657245960134	9642.7702378249
0	9529	6521.673236037652	9642.2206535754
0	9544	6531.68922611517	9641.6710693259
0	9559	6541.705216192688	9641.1214850764
0	9574	6551.721206270206	9640.5719008269
0	9586	6561.737196347724	9640.0223165774
0	9595	6571.753186425242	9639.4727323279
0	9610	6581.76917650276	9638.9231480784
0	9625	6591.785166580278	9638.3735638289
0	9640	6601.801156657796	9637.8239795794
0	9655	6611.817146735314	9637.2743953299
0	9670	6621.833136812832	9636.7248110804
0	9685	6631.84912689035	9636.1752268309
0	9700	6641.865116967868	9635.6256425814
0	9715	6651.881107045386	9635.0760583319
0	9730	6661.897097122904	9634.5264740824
0	9745	6671.913087200422	9633.9768898329
0	9760	6681.92907727794	9633.4273055834
0	9775	6691.945067355458	9632.8777213339
0	9790	6701.961057432976	9632.3281370844
0	9805	6711.977047510494	9631.7785528349
0	9820	6721.993037588012	9631.2289685854
0	9835	6732.00902766553	9630.6793843359
0	9850	6742.025017743048	9630.1298000864
0	9865	6752.041007820566	9629.5802158369
0	9877	6762.056997898084	9629.0306315874
0	9892	6772.072987975602	9628.4810473379
0	9907	6782.08897805312	9627.9314630884
0	9922	6792.104968130638	9627.3818788389
0	9934	6802.120958208156	9626.8322945894
0	9949	6812.136948285674	9626.2827103399
0	9964	6822.152938363192	9625.7331260904
0	9979	6832.16892844071	9625.1835418409
0	9994	6842.184918518228	9624.6339575914
0	10009	6852.200908595746	9624.0843733419
0	10024	6862.216898673264	9623.5347890924
0	10039	6872.232888750782	9622.9852048429
0	10054	6882.2488788283	9622.4356205934
0	10069	6892.264868905818	9621.8860363439
0	10084	6902.280858983336	9621.3364520944
0	10099	6912.296849060854	9620.7868678449
0	10114	6922.312839138372	9620.2372835954
0	10129	6932.32882921589	9619.6876993459
0	10144	6942.344819293408	9619.1381150964
0	10156	6952.360809370926	9618.5885308469
0	10171	6962.376799448444	9618.0389465974
0	10186	6972.392789525962	9617.4893623479
0	10201	6982.40877960348	9616.9397780984
0	10216	6992.424769680998	9616.3901938489
0	10231	7002.440759758516	9615.8406095994