version 3
run General-2-20231219-07:30:32-6828
attr configname General
attr datetime 20231219-07:30:32
attr datetimef 20231219-073032
attr experiment General
attr inifile omnetpp.ini
attr iterationvars $0=54
attr iterationvarsd 54
attr iterationvarsf 54-
attr measurement $0=54
attr network Sensor_network
attr processid 6828
attr repetition 0
attr replication #0
attr resultdir results
attr runnumber 2
attr seedset 54
config network Sensor_network
config seed-set 54

vector 0 Sensor_network.sensor[3] Each_sensor_energy:vector ETV
attr recordingmode vector
attr source batterylevel
vector 1 Sensor_network.sensor[4] Each_sensor_energy:vector ETV
attr recordingmode vector
attr source batterylevel
vector 2 Sensor_network.sensor[1] Each_sensor_energy:vector ETV
attr recordingmode vector
attr source batterylevel
vector 3 Sensor_network.sensor[2] Each_sensor_energy:vector ETV
attr recordingmode vector
attr source batterylevel
vector 4 Sensor_network.sensor[0] Each_sensor_energy:vector ETV
attr recordingmode vector
attr source batterylevel
0	1	10.012583452044	9999.4514344451
0	16	20.813964706846	9998.9028688902
0	34	31.615345961648	9998.3543033353
0	49	42.41672721645	9997.8057377804
0	64	53.218108471252	9997.2571722255
0	79	64.019489726054	9996.7086066706
0	94	74.820870980856	9996.1600411157
0	109	85.622252235658	9995.6114755608
0	127	96.42363349046	9995.0629100059
0	142	107.225014745262	9994.514344451
0	157	118.026396000064	9993.9657788961
0	172	128.827777254866	9993.4172133412
0	187	139.629158509668	9992.8686477863
0	202	150.43053976447	9992.3200822314
0	220	161.231921019272	9991.7715166765
0	235	172.033302274074	9991.2229511216
0	250	182.834683528876	9990.6743855667
0	265	193.636064783678	9990.1258200118
0	280	204.43744603848	9989.5772544569
0	295	215.238827293282	9989.028688902
0	310	226.040208548084	9988.4801233471
0	328	236.841589802886	9987.9315577922
0	343	247.642971057688	9987.3829922373
0	358	258.44435231249	9986.8344266824
0	373	269.245733567292	9986.2858611275
0	388	280.047114822094	9985.7372955726
0	403	290.848496076896	9985.1887300177
0	421	301.649877331698	9984.6401644628
0	436	312.4512585865	9984.091598908
0	451	323.252639841302	9983.5430333531
0	466	334.054021096104	9982.9944677982
0	481	344.855402350906	9982.4459022433
0	496	355.656783605708	9981.8973366884
0	511	366.45816486051	9981.3487711335
0	526	377.259546115312	9980.8002055786
0	541	388.060927370114	9980.2516400237
0	556	398.862308624916	9979.7030744688
0	571	409.663689879718	9979.1545089139
0	586	420.46507113452	9978.605943359
0	601	431.266452389322	9978.0573778041
0	619	442.067833644124	9977.5088122492
0	634	452.869214898926	9976.9602466943
0	649	463.670596153728	9976.4116811394
0	664	474.47197740853	9975.8631155845
0	679	485.273358663332	9975.3145500296
0	697	496.074739918134	9974.7659844747
0	712	506.876121172936	9974.2174189198
0	727	517.677502427738	9973.6688533649
0	742	528.47888368254	9973.12028781
0	757	539.280264937342	9972.5717222551
0	772	550.081646192144	9972.0231567002
0	787	560.883027446946	9971.4745911453
0	805	571.684408701748	9970.9260255904
0	820	582.48578995655	9970.3774600355
0	835	593.287171211352	9969.8288944806
0	847	604.088552466154	9969.2803289257
0	862	614.889933720956	9968.7317633708
0	877	625.691314975758	9968.1831978159
0	892	636.49269623056	9967.634632261
0	907	647.294077485362	9967.0860667061
0	922	658.095458740164	9966.5375011512
0	937	668.896839994966	9965.9889355963
0	952	679.698221249768	9965.4403700414
0	967	690.49960250457	9964.8918044865
0	982	701.300983759372	9964.3432389316
0	1000	712.102365014174	9963.7946733767
0	1015	722.903746268976	9963.2461078218
0	1030	733.705127523778	9962.6975422669
0	1045	744.50650877858	9962.148976712
0	1060	755.307890033382	9961.6004111571
0	1075	766.109271288184	9961.0518456022
0	1090	776.910652542986	9960.5032800473
0	1105	787.712033797788	9959.9547144924
0	1120	798.51341505259	9959.4061489375
0	1135	809.314796307392	9958.8575833826
0	1150	820.116177562194	9958.3090178277
0	1165	830.917558816996	9957.7604522728
0	1183	841.718940071798	9957.2118867179
0	1198	852.5203213266	9956.663321163
0	1213	863.321702581402	9956.1147556081
0	1228	874.123083836204	9955.5661900532
0	1243	884.924465091006	9955.0176244983
0	1261	895.725846345808	9954.4690589434
0	1276	906.52722760061	9953.9204933885
0	1291	917.328608855412	9953.3719278337
0	1306	928.129990110214	9952.8233622788
0	1321	938.931371365016	9952.2747967239
0	1336	949.732752619818	9951.726231169
0	1351	960.53413387462	9951.1776656141
0	1366	971.335515129422	9950.6291000592
0	1384	982.136896384224	9950.0805345043
0	1399	992.938277639026	9949.5319689494
0	1414	1003.739658893828	9948.9834033945
0	1429	1014.54104014863	9948.4348378396
0	1444	1025.342421403432	9947.8862722847
0	1459	1036.143802658234	9947.3377067298
0	1474	1046.945183913036	9946.7891411749
0	1489	1057.746565167838	9946.24057562
0	1504	1068.54794642264	9945.6920100651
0	1519	1079.349327677442	9945.1434445102
0	1534	1090.150708932244	9944.5948789553
0	1549	1100.952090187046	9944.0463134004
0	1564	1111.753471441848	9943.4977478455
0	1582	1122.55485269665	9942.9491822906
0	1597	1133.356233951452	9942.4006167357
0	1612	1144.157615206254	9941.8520511808
0	1627	1154.958996461056	9941.3034856259
0	1642	1165.760377715858	9940.754920071
0	1657	1176.56175897066	9940.2063545161
0	1672	1187.363140225462	9939.6577889612
0	1687	1198.164521480264	9939.1092234063
0	1702	1208.965902735066	9938.5606578514
0	1717	1219.767283989868	9938.0120922965
0	1732	1230.56866524467	9937.4635267416
0	1747	1241.370046499472	9936.9149611867
0	1765	1252.171427754274	9936.3663956318
0	1780	1262.972809009076	9935.8178300769
0	1795	1273.774190263878	9935.269264522
0	1810	1284.57557151868	9934.7206989671
0	1828	1295.376952773482	9934.1721334122
0	1843	1306.178334028284	9933.6235678573
0	1855	1316.979715283086	9933.0750023024
0	1870	1327.781096537888	9932.5264367475
0	1885	1338.58247779269	9931.9778711926
0	1900	1349.383859047492	9931.4293056377
0	1915	1360.185240302294	9930.8807400828
0	1930	1370.986621557096	9930.3321745279
0	1945	1381.788002811898	9929.783608973
0	1963	1392.5893840667	9929.2350434181
0	1978	1403.390765321502	9928.6864778632
0	1993	1414.192146576304	9928.1379123083
0	2008	1424.993527831106	9927.5893467534
0	2023	1435.794909085908	9927.0407811985
0	2038	1446.59629034071	9926.4922156436
0	2053	1457.397671595512	9925.9436500887
0	2068	1468.199052850314	9925.3950845338
0	2083	1479.000434105116	9924.8465189789
0	2098	1489.801815359918	9924.297953424
0	2113	1500.60319661472	9923.7493878691
0	2128	1511.404577869522	9923.2008223142
0	2143	1522.205959124324	9922.6522567593
0	2161	1533.007340379126	9922.1036912045
0	2176	1543.808721633928	9921.5551256496
0	2191	1554.61010288873	9921.0065600947
0	2206	1565.411484143532	9920.4579945398
0	2221	1576.212865398334	9919.9094289849
0	2236	1587.014246653136	9919.36086343
0	2251	1597.815627907938	9918.8122978751
0	2266	1608.61700916274	9918.2637323202
0	2281	1619.418390417542	9917.7151667653
0	2296	1630.219771672344	9917.1666012104
0	2311	1641.021152927146	9916.6180356555
0	2326	1651.822534181948	9916.0694701006
0	2344	1662.62391543675	9915.5209045457
0	2359	1673.425296691552	9914.9723389908
0	2374	1684.226677946354	9914.4237734359
0	2392	1695.028059201156	9913.875207881
0	2407	1705.829440455958	9913.3266423261
0	2422	1716.63082171076	9912.7780767712
0	2437	1727.432202965562	9912.2295112163
0	2452	1738.233584220364	9911.6809456614
0	2467	1749.034965475166	9911.1323801065
0	2482	1759.836346729968	9910.5838145516
0	2497	1770.63772798477	9910.0352489967
0	2512	1781.439109239572	9909.4866834418
0	2527	1792.240490494374	9908.9381178869
0	2545	1803.041871749176	9908.389552332
0	2560	1813.843253003978	9907.8409867771
0	2575	1824.64463425878	9907.2924212222
0	2590	1835.446015513582	9906.7438556673
0	2605	1846.247396768384	9906.1952901124
0	2620	1857.048778023186	9905.6467245575
0	2635	1867.850159277988	9905.0981590026
0	2650	1878.65154053279	9904.5495934477
0	2665	1889.452921787592	9904.0010278928
0	2680	1900.254303042394	9903.4524623379
0	2695	1911.055684297196	9902.903896783
0	2710	1921.857065551998	9902.3553312281
0	2728	1932.6584468068	9901.8067656732
0	2743	1943.459828061602	9901.2582001183
0	2758	1954.261209316404	9900.7096345634
0	2773	1965.062590571206	9900.1610690085
0	2788	1975.863971826008	9899.6125034536
0	2803	1986.66535308081	9899.0639378987
0	2818	1997.466734335612	9898.5153723438
0	2833	2008.268115590414	9897.9668067889
0	2845	2019.069496845216	9897.418241234
0	2860	2029.870878100018	9896.8696756791
0	2875	2040.67225935482	9896.3211101242
0	2890	2051.473640609622	9895.7725445693
0	2905	2062.275021864424	9895.2239790144
0	2923	2073.076403119226	9894.6754134595
0	2938	2083.877784374028	9894.1268479046
0	2953	2094.67916562883	9893.5782823497
0	2971	2105.480546883632	9893.0297167948
0	2986	2116.281928138434	9892.4811512399
0	3001	2127.083309393236	9891.932585685
0	3016	2137.884690648038	9891.3840201302
0	3031	2148.68607190284	9890.8354545753
0	3046	2159.487453157642	9890.2868890204
0	3061	2170.288834412444	9889.7383234655
0	3076	2181.090215667246	9889.1897579106
0	3091	2191.891596922048	9888.6411923557
0	3106	2202.69297817685	9888.0926268008
0	3124	2213.494359431652	9887.5440612459
0	3139	2224.295740686454	9886.995495691
0	3154	2235.097121941256	9886.4469301361
0	3169	2245.898503196058	9885.8983645812
0	3184	2256.69988445086	9885.3497990263
0	3199	2267.501265705662	9884.8012334714
0	3214	2278.302646960464	9884.2526679165
0	3229	2289.104028215266	9883.7041023616
0	3244	2299.905409470068	9883.1555368067
0	3259	2310.70679072487	9882.6069712518
0	3274	2321.508171979672	9882.0584056969
0	3289	2332.309553234474	9881.509840142
0	3307	2343.110934489276	9880.9612745871
0	3322	2353.912315744078	9880.4127090322
0	3337	2364.71369699888	9879.8641434773
0	3352	2375.515078253682	9879.3155779224
0	3367	2386.316459508484	9878.7670123675
0	3382	2397.117840763286	9878.2184468126
0	3397	2407.919222018088	9877.6698812577
0	3412	2418.72060327289	9877.1213157028
0	3427	2429.521984527692	9876.5727501479
0	3442	2440.323365782494	9876.024184593
0	3457	2451.124747037296	9875.4756190381
0	3472	2461.926128292098	9874.9270534832
0	3487	2472.7275095469	9874.3784879283
0	3505	2483.528890801702	9873.8299223734
0	3520	2494.330272056504	9873.2813568185
0	3538	2505.131653311306	9872.7327912636
0	3553	2515.933034566108	9872.1842257087
0	3568	2526.73441582091	9871.6356601538
0	3583	2537.535797075712	9871.0870945989
0	3598	2548.337178330514	9870.538529044
0	3613	2559.138559585316	9869.9899634891
0	3628	2569.939940840118	9869.4413979342
0	3643	2580.74132209492	9868.8928323793
0	3658	2591.542703349722	9868.3442668244
0	3673	2602.344084604524	9867.7957012695
0	3688	2613.145465859326	9867.2471357146
0	3706	2623.946847114128	9866.6985701597
0	3721	2634.74822836893	9866.1500046048
0	3736	2645.549609623732	9865.6014390499
0	3751	2656.350990878534	9865.052873495
0	3766	2667.152372133336	9864.5043079401
0	3781	2677.953753388138	9863.9557423852
0	3796	2688.75513464294	9863.4071768303
0	3811	2699.556515897742	9862.8586112754
0	3826	2710.357897152544	9862.3100457205
0	3841	2721.159278407346	9861.7614801656
0	3853	2731.960659662148	9861.2129146107
0	3868	2742.76204091695	9860.6643490558
0	3886	2753.563422171752	9860.115783501
0	3901	2764.364803426554	9859.5672179461
0	3916	2775.166184681356	9859.0186523912
0	3931	2785.967565936158	9858.4700868363
0	3946	2796.76894719096	9857.9215212814
0	3961	2807.570328445762	9857.3729557265
0	3976	2818.371709700564	9856.8243901716
0	3991	2829.173090955366	9856.2758246167
0	4006	2839.974472210168	9855.7272590618
0	4021	2850.77585346497	9855.1786935069
0	4036	2861.577234719772	9854.630127952
0	4054	2872.378615974574	9854.0815623971
0	4069	2883.179997229376	9853.5329968422
0	4087	2893.981378484178	9852.9844312873
0	4105	2904.78275973898	9852.4358657324
0	4120	2915.584140993782	9851.8873001775
0	4135	2926.385522248584	9851.3387346226
0	4150	2937.186903503386	9850.7901690677
0	4165	2947.988284758188	9850.2416035128
0	4180	2958.78966601299	9849.6930379579
0	4195	2969.591047267792	9849.144472403
0	4210	2980.392428522594	9848.5959068481
0	4225	2991.193809777396	9848.0473412932
0	4240	3001.995191032198	9847.4987757383
0	4255	3012.796572287	9846.9502101834
0	4273	3023.597953541802	9846.4016446285
0	4288	3034.399334796604	9845.8530790736
0	4303	3045.200716051406	9845.3045135187
0	4318	3056.002097306208	9844.7559479638
0	4333	3066.80347856101	9844.2073824089
0	4348	3077.604859815812	9843.658816854
0	4363	3088.406241070614	9843.1102512991
0	4378	3099.207622325416	9842.5616857442
0	4393	3110.009003580218	9842.0131201893
0	4408	3120.81038483502	9841.4645546344
0	4423	3131.611766089822	9840.9159890795
0	4438	3142.413147344624	9840.3674235246
0	4453	3153.214528599426	9839.8188579697
0	4471	3164.015909854228	9839.2702924148
0	4486	3174.81729110903	9838.7217268599
0	4501	3185.618672363832	9838.173161305
0	4516	3196.420053618634	9837.6245957501
0	4531	3207.221434873436	9837.0760301952
0	4546	3218.022816128238	9836.5274646403
0	4561	3228.82419738304	9835.9788990854
0	4576	3239.625578637842	9835.4303335305
0	4591	3250.426959892644	9834.8817679756
0	4606	3261.228341147446	9834.3332024207
0	4621	3272.029722402248	9833.7846368658
0	4636	3282.83110365705	9833.2360713109
0	4651	3293.632484911852	9832.687505756
0	4672	3304.433866166654	9832.1389402011
0	4687	3315.235247421456	9831.5903746462
0	4702	3326.036628676258	9831.0418090913
0	4717	3336.83800993106	9830.4932435364
0	4732	3347.639391185862	9829.9446779815
0	4747	3358.440772440664	9829.3961124266
0	4762	3369.242153695466	9828.8475468718
0	4777	3380.043534950268	9828.2989813169
0	4792	3390.84491620507	9827.750415762
0	4807	3401.646297459872	9827.2018502071
0	4822	3412.447678714674	9826.6532846522
0	4837	3423.249059969476	9826.1047190973
0	4852	3434.050441224278	9825.5561535424
0	4867	3444.85182247908	9825.0075879875
0	4882	3455.653203733882	9824.4590224326
0	4897	3466.454584988684	9823.9104568777
0	4912	3477.255966243486	9823.3618913228
0	4927	3488.057347498288	9822.8133257679
0	4942	3498.85872875309	9822.264760213
0	4957	3509.660110007892	9821.7161946581
0	4972	3520.461491262694	9821.1676291032
0	4987	3531.262872517496	9820.6190635483
0	5002	3542.064253772298	9820.0704979934
0	5017	3552.8656350271	9819.5219324385
0	5032	3563.667016281902	9818.9733668836
0	5050	3574.468397536704	9818.4248013287
0	5065	3585.269778791506	9817.8762357738
0	5080	3596.071160046308	9817.3276702189
0	5095	3606.87254130111	9816.779104664
0	5110	3617.673922555912	9816.2305391091
0	5125	3628.475303810714	9815.6819735542
0	5140	3639.276685065516	9815.1334079993
0	5155	3650.078066320318	9814.5848424444
0	5170	3660.87944757512	9814.0362768895
0	5185	3671.680828829922	9813.4877113346
0	5200	3682.482210084724	9812.9391457797
0	5215	3693.283591339526	9812.3905802248
0	5233	3704.084972594328	9811.8420146699
0	5251	3714.88635384913	9811.293449115
0	5266	3725.687735103932	9810.7448835601
0	5281	3736.489116358734	9810.1963180052
0	5296	3747.290497613536	9809.6477524503
0	5311	3758.091878868338	9809.0991868954
0	5326	3768.89326012314	9808.5506213405
0	5341	3779.694641377942	9808.0020557856
0	5356	3790.496022632744	9807.4534902307
0	5371	3801.297403887546	9806.9049246758
0	5386	3812.098785142348	9806.3563591209
0	5401	3822.90016639715	9805.807793566
0	5416	3833.701547651952	9805.2592280111
0	5434	3844.502928906754	9804.7106624562
0	5449	3855.304310161556	9804.1620969013
0	5464	3866.105691416358	9803.6135313464
0	5479	3876.90707267116	9803.0649657915
0	5494	3887.708453925962	9802.5164002366
0	5509	3898.509835180764	9801.9678346817
0	5524	3909.311216435566	9801.4192691268
0	5539	3920.112597690368	9800.8707035719
0	5554	3930.91397894517	9800.322138017
0	5569	3941.715360199972	9799.7735724621
0	5584	3952.516741454774	9799.2250069072
0	5599	3963.318122709576	9798.6764413523
0	5614	3974.119503964378	9798.1278757975
0	5632	3984.92088521918	9797.5793102426
0	5647	3995.722266473982	9797.0307446877
0	5662	4006.523647728784	9796.4821791328
0	5677	4017.325028983586	9795.9336135779
0	5692	4028.126410238388	9795.385048023
0	5707	4038.92779149319	9794.8364824681
0	5722	4049.729172747992	9794.2879169132
0	5737	4060.530554002794	9793.7393513583
0	5752	4071.331935257596	9793.1907858034
0	5767	4082.133316512398	9792.6422202485
0	5782	4092.9346977672	9792.0936546936
0	5800	4103.736079022002	9791.5450891387
0	5818	4114.537460276804	9790.9965235838
0	5833	4125.338841531606	9790.4479580289
0	5848	4136.140222786408	9789.899392474
0	5860	4146.94160404121	9789.3508269191
0	5875	4157.742985296012	9788.8022613642
0	5890	4168.544366550814	9788.2536958093
0	5905	4179.345747805616	9787.7051302544
0	5920	4190.147129060418	9787.1565646995
0	5935	4200.94851031522	9786.6079991446
0	5950	4211.749891570022	9786.0594335897
0	5965	4222.551272824824	9785.5108680348
0	5980	4233.352654079626	9784.9623024799
0	5995	4244.154035334428	9784.413736925
0	6013	4254.95541658923	9783.8651713701
0	6028	4265.756797844032	9783.3166058152
0	6043	4276.558179098834	9782.7680402603
0	6058	4287.359560353636	9782.2194747054
0	6073	4298.160941608438	9781.6709091505
0	6088	4308.96232286324	9781.1223435956
0	6103	4319.763704118042	9780.5737780407
0	6118	4330.565085372844	9780.0252124858
0	6133	4341.366466627646	9779.4766469309
0	6148	4352.167847882448	9778.928081376
0	6163	4362.96922913725	9778.3795158211
0	6178	4373.770610392052	9777.8309502662
0	6193	4384.571991646854	9777.2823847113
0	6211	4395.373372901656	9776.7338191564
0	6226	4406.174754156458	9776.1852536015
0	6241	4416.97613541126	9775.6366880466
0	6256	4427.777516666062	9775.0881224917
0	6271	4438.578897920864	9774.5395569368
0	6286	4449.380279175666	9773.9909913819
0	6301	4460.181660430468	9773.442425827
0	6316	4470.98304168527	9772.8938602721
0	6331	4481.784422940072	9772.3452947172
0	6346	4492.585804194874	9771.7967291623
0	6361	4503.387185449676	9771.2481636074
0	6379	4514.188566704478	9770.6995980525
0	6397	4524.98994795928	9770.1510324976
0	6412	4535.791329214082	9769.6024669427
0	6427	4546.592710468884	9769.0539013878
0	6442	4557.394091723686	9768.5053358329
0	6457	4568.195472978488	9767.956770278
0	6472	4578.99685423329	9767.4082047231
0	6487	4589.798235488092	9766.8596391683
0	6502	4600.599616742894	9766.3110736134
0	6517	4611.400997997696	9765.7625080585
0	6532	4622.202379252498	9765.2139425036
0	6547	4633.0037605073	9764.6653769487
0	6562	4643.805141762102	9764.1168113938
0	6577	4654.606523016904	9763.5682458389
0	6595	4665.407904271706	9763.019680284
0	6610	4676.209285526508	9762.4711147291
0	6625	4687.01066678131	9761.9225491742
0	6640	4697.812048036112	9761.3739836193
0	6655	4708.613429290914	9760.8254180644
0	6670	4719.414810545716	9760.2768525095
0	6685	4730.216191800518	9759.7282869546
0	6700	4741.01757305532	9759.1797213997
0	6715	4751.818954310122	9758.6311558448
0	6730	4762.620335564924	9758.0825902899
0	6745	4773.421716819726	9757.534024735
0	6760	4784.223098074528	9756.9854591801
0	6775	4795.02447932933	9756.4368936252
0	6793	4805.825860584132	9755.8883280703
0	6808	4816.627241838934	9755.3397625154
0	6823	4827.428623093736	9754.7911969605
0	6838	4838.230004348538	9754.2426314056
0	6850	4849.03138560334	9753.6940658507
0	6865	4859.832766858142	9753.1455002958
0	6880	4870.634148112944	9752.5969347409
0	6895	4881.435529367746	9752.048369186
0	6910	4892.236910622548	9751.4998036311
0	6925	4903.03829187735	9750.9512380762
0	6943	4913.839673132152	9750.4026725213
0	6958	4924.641054386954	9749.8541069664
0	6976	4935.442435641756	9749.3055414115
0	6991	4946.243816896558	9748.7569758566
0	7006	4957.04519815136	9748.2084103017
0	7021	4967.846579406162	9747.6598447468
0	7036	4978.647960660964	9747.1112791919
0	7051	4989.449341915766	9746.562713637
0	7066	5000.250723170568	9746.0141480821
0	7081	5011.05210442537	9745.4655825272
0	7096	5021.853485680172	9744.9170169723
0	7111	5032.654866934974	9744.3684514174
0	7126	5043.456248189776	9743.8198858625
0	7141	5054.257629444578	9743.2713203076
0	7156	5065.05901069938	9742.7227547527
0	7174	5075.860391954182	9742.1741891978
0	7189	5086.661773208984	9741.6256236429
0	7204	5097.463154463786	9741.077058088
0	7219	5108.264535718588	9740.5284925331
0	7234	5119.06591697339	9739.9799269782
0	7249	5129.867298228192	9739.4313614233
0	7264	5140.668679482994	9738.8827958684
0	7279	5151.470060737796	9738.3342303135
0	7294	5162.271441992598	9737.7856647586
0	7309	5173.0728232474	9737.2370992037
0	7324	5183.874204502202	9736.6885336488
0	7339	5194.675585757004	9736.139968094
0	7357	5205.476967011806	9735.5914025391
0	7372	5216.278348266608	9735.0428369842
0	7387	5227.07972952141	9734.4942714293
0	7402	5237.881110776212	9733.9457058744
0	7417	5248.682492031014	9733.3971403195
0	7432	5259.483873285816	9732.8485747646
0	7447	5270.285254540618	9732.3000092097
0	7462	5281.08663579542	9731.7514436548
0	7477	5291.888017050222	9731.2028780999
0	7492	5302.689398305024	9730.654312545
0	7510	5313.490779559826	9730.1057469901
0	7525	5324.292160814628	9729.5571814352
0	7540	5335.09354206943	9729.0086158803
0	7558	5345.894923324232	9728.4600503254
0	7573	5356.696304579034	9727.9114847705
0	7588	5367.497685833836	9727.3629192156
0	7603	5378.299067088638	9726.8143536607
0	7618	5389.10044834344	9726.2657881058
0	7633	5399.901829598242	9725.7172225509
0	7648	5410.703210853044	9725.168656996
0	7663	5421.504592107846	9724.6200914411
0	7678	5432.305973362648	9724.0715258862
0	7693	5443.10735461745	9723.5229603313
0	7708	5453.908735872252	9722.9743947764
0	7723	5464.710117127054	9722.4258292215
0	7738	5475.511498381856	9721.8772636666
0	7756	5486.312879636658	9721.3286981117
0	7771	5497.11426089146	9720.7801325568
0	7789	5507.915642146262	9720.2315670019
0	7804	5518.717023401064	9719.683001447
0	7819	5529.518404655866	9719.1344358921
0	7834	5540.319785910668	9718.5858703372
0	7846	5551.12116716547	9718.0373047823
0	7861	5561.922548420272	9717.4887392274
0	7876	5572.723929675074	9716.9401736725
0	7891	5583.525310929876	9716.3916081176
0	7906	5594.326692184678	9715.8430425627
0	7921	5605.12807343948	9715.2944770078
0	7939	5615.929454694282	9714.7459114529
0	7954	5626.730835949084	9714.197345898
0	7969	5637.532217203886	9713.6487803431
0	7984	5648.333598458688	9713.1002147882
0	7999	5659.13497971349	9712.5516492333
0	8014	5669.936360968292	9712.0030836784
0	8029	5680.737742223094	9711.4545181235
0	8044	5691.539123477896	9710.9059525686
0	8059	5702.340504732698	9710.3573870137
0	8077	5713.1418859875	9709.8088214588
0	8092	5723.943267242302	9709.2602559039
0	8107	5734.744648497104	9708.711690349
0	8122	5745.546029751906	9708.1631247941
0	8140	5756.347411006708	9707.6145592392
0	8155	5767.14879226151	9707.0659936843
0	8170	5777.950173516312	9706.5174281294
0	8185	5788.751554771114	9705.9688625745
0	8200	5799.552936025916	9705.4202970196
0	8215	5810.354317280718	9704.8717314648
0	8230	5821.15569853552	9704.3231659099
0	8245	5831.957079790322	9703.774600355
0	8260	5842.758461045124	9703.2260348001
0	8275	5853.559842299926	9702.6774692452
0	8290	5864.361223554728	9702.1289036903
0	8305	5875.16260480953	9701.5803381354
0	8320	5885.963986064332	9701.0317725805
0	8338	5896.765367319134	9700.4832070256
0	8353	5907.566748573936	9699.9346414707
0	8368	5918.368129828738	9699.3860759158
0	8383	5929.16951108354	9698.8375103609
0	8398	5939.970892338342	9698.288944806
0	8413	5950.772273593144	9697.7403792511
0	8428	5961.573654847946	9697.1918136962
0	8443	5972.375036102748	9696.6432481413
0	8458	5983.17641735755	9696.0946825864
0	8473	5993.977798612352	9695.5461170315
0	8488	6004.779179867154	9694.9975514766
0	8503	6015.580561121956	9694.4489859217
0	8521	6026.381942376758	9693.9004203668
0	8536	6037.18332363156	9693.3518548119
0	8551	6047.984704886362	9692.803289257
0	8566	6058.786086141164	9692.2547237021
0	8581	6069.587467395966	9691.7061581472
0	8596	6080.388848650768	9691.1575925923
0	8611	6091.19022990557	9690.6090270374
0	8626	6101.991611160372	9690.0604614825
0	8644	6112.792992415174	9689.5118959276
0	8659	6123.594373669976	9688.9633303727
0	8674	6134.395754924778	9688.4147648178
0	8689	6145.19713617958	9687.8661992629
0	8704	6155.998517434382	9687.317633708
0	8722	6166.799898689184	9686.7690681531
0	8737	6177.601279943986	9686.2205025982
0	8752	6188.402661198788	9685.6719370433
0	8767	6199.20404245359	9685.1233714884
0	8782	6210.005423708392	9684.5748059335
0	8797	6220.806804963194	9684.0262403786
0	8812	6231.608186217996	9683.4776748237
0	8827	6242.409567472798	9682.9291092688
0	8842	6253.2109487276	9682.3805437139
0	8854	6264.012329982402	9681.831978159
0	8869	6274.813711237204	9681.2834126041
0	8884	6285.615092492006	9680.7348470492
0	8902	6296.416473746808	9680.1862814943
0	8917	6307.21785500161	9679.6377159394
0	8932	6318.019236256412	9679.0891503845
0	8947	6328.820617511214	9678.5405848296
0	8962	6339.621998766016	9677.9920192747
0	8977	6350.423380020818	9677.4434537198
0	8992	6361.22476127562	9676.8948881649
0	9007	6372.026142530422	9676.34632261
0	9022	6382.827523785224	9675.7977570551
0	9037	6393.628905040026	9675.2491915002
0	9052	6404.430286294828	9674.7006259453
0	9067	6415.23166754963	9674.1520603905
0	9082	6426.033048804432	9673.6034948356
0	9100	6436.834430059234	9673.0549292807
0	9115	6447.635811314036	9672.5063637258
0	9130	6458.437192568838	9671.9577981709
0	9145	6469.23857382364	9671.409232616
0	9160	6480.039955078442	9670.8606670611
0	9175	6490.841336333244	9670.3121015062
0	9190	6501.642717588046	9669.7635359513
0	9208	6512.444098842848	9669.2149703964
0	9223	6523.24548009765	9668.6664048415
0	9238	6534.046861352452	9668.1178392866
0	9253	6544.848242607254	9667.5692737317
0	9268	6555.649623862056	9667.0207081768
0	9283	6566.451005116858	9666.4721426219
0	9301	6577.25238637166	9665.923577067
0	9316	6588.053767626462	9665.3750115121
0	9331	6598.855148881264	9664.8264459572
0	9346	6609.656530136066	9664.2778804023
0	9361	6620.457911390868	9663.7293148474
0	9376	6631.25929264567	9663.1807492925
0	9391	6642.060673900472	9662.6321837376
0	9406	6652.862055155274	9662.0836181827
0	9421	6663.663436410076	9661.5350526278
0	9436	6674.464817664878	9660.9864870729
0	9451	6685.26619891968	9660.437921518
0	9466	6696.067580174482	9659.8893559631
0	9484	6706.868961429284	9659.3407904082
0	9499	6717.670342684086	9658.7922248533
0	9514	6728.471723938888	9658.2436592984
0	9529	6739.27310519369	9657.6950937435
0	9544	6750.074486448492	9657.1465281886
0	9559	6760.875867703294	9656.5979626337
0	9574	6771.677248958096	9656.0493970788
0	9589	6782.478630212898	9655.5008315239
0	9604	6793.2800114677	9654.952265969
0	9619	6804.081392722502	9654.4037004141
0	9634	6814.882773977304	9653.8551348592
0	9649	6825.684155232106	9653.3065693043
0	9664	6836.485536486908	9652.7580037494
0	9682	6847.28691774171	9652.2094381945
0	9697	6858.088298996512	9651.6608726396
0	9712	6868.889680251314	9651.1123070847
0	9727	6879.691061506116	9650.5637415298
0	9742	6890.492442760918	9650.0151759749
0	9757	6901.29382401572	9649.46661042
0	9775	6912.095205270522	9648.9180448651
0	9790	6922.896586525324	9648.3694793102
0	9805	6933.697967780126	9647.8209137553
0	9820	6944.499349034928	9647.2723482004
0	9835	6955.30073028973	9646.7237826455
0	9847	6966.102111544532	9646.1752170906
0	9862	6976.903492799334	9645.6266515357
0	9880	6987.704874054136	9645.0780859808
0	9895	6998.506255308938	9644.5295204259
0	9910	7009.30763656374	9643.980954871
0	9925	7020.109017818542	9643.4323893161
0	9940	7030.910399073344	9642.8838237613
0	9955	7041.711780328146	9642.3352582064
0	9970	7052.513161582948	9641.7866926515
0	9985	7063.31454283775	9641.2381270966
0	10000	7074.115924092552	9640.6895615417
0	10015	7084.917305347354	9640.1409959868
0	10030	7095.718686602156	9639.5924304319
0	10045	7106.520067856958	9639.043864877
0	10063	7117.32144911176	9638.4952993221
0	10078	7128.122830366562	9637.9467337672
0	10093	7138.924211621364	9637.3981682123
0	10108	7149.725592876166	9636.8496026574
0	10123	7160.526974130968	9636.3010371025
0	10138	7171.32835538577	9635.7524715476
0	10153	7182.129736640572	9635.2039059927
0	10168	7192.931117895374	9634.6553404378
0	10183	7203.732499150176	9634.1067748829
0	10198	7214.533880404978	9633.558209328
0	10213	7225.33526165978	9633.0096437731
0	10228	7236.136642914582	9632.4610782182
0	10243	7246.938024169384	9631.9125126633
0	10261	7257.739405424186	9631.3639471084
0	10276	7268.540786678988	9630.8153815535
0	10291	7279.34216793379	9630.2668159986
0	10306	7290.143549188592	9629.7182504437
0	10321	7300.944930443394	9629.1696848888
0	10336	7311.746311698196	9628.6211193339
0	10354	7322.547692952998	9628.072553779
0	10369	7333.3490742078	9627.5239882241
0	10384	7344.150455462602	9626.9754226692
0	10399	7354.951836717404	9626.4268571143
0	10414	7365.753217972206	9625.8782915594
0	10429	7376.554599227008	9625.3297260045
0	10447	7387.35598048181	9624.7811604496
0	10462	7398.157361736612	9624.2325948947
0	10477	7408.958742991414	9623.6840293398
0	10492	7419.760124246216	9623.1354637849
0	10507	7430.561505501018	9622.58689823
0	10522	7441.36288675582	9622.0383326751
0	10537	7452.164268010622	9621.4897671202
0	10552	7462.965649265424	9620.9412015653
0	10567	7473.767030520226	9620.3926360104
0	10582	7484.568411775028	9619.8440704555
0	10597	7495.36979302983	9619.2955049006
0	10612	7506.171174284632	9618.7469393457
0	10627	7516.972555539434	9618.1983737908
0	10645	7527.773936794236	9617.6498082359