version 3
run General-0-20231219-07:29:35-22304
attr configname General
attr datetime 20231219-07:29:35
attr datetimef 20231219-072935
attr experiment General
attr inifile omnetpp.ini
attr iterationvars $0=128
attr iterationvarsd 128
attr iterationvarsf 128-
attr measurement $0=128
attr network Sensor_network
attr processid 22304
attr repetition 0
attr replication #0
attr resultdir results
attr runnumber 0
attr seedset 128
config network Sensor_network
config seed-set 128

vector 0 Sensor_network.sensor[4] Each_sensor_energy:vector ETV
attr recordingmode vector
attr source batterylevel
vector 1 Sensor_network.sensor[2] Each_sensor_energy:vector ETV
attr recordingmode vector
attr source batterylevel
vector 2 Sensor_network.sensor[3] Each_sensor_energy:vector ETV
attr recordingmode vector
attr source batterylevel
vector 3 Sensor_network.sensor[0] Each_sensor_energy:vector ETV
attr recordingmode vector
attr source batterylevel
vector 4 Sensor_network.sensor[1] Each_sensor_energy:vector ETV
attr recordingmode vector
attr source batterylevel
0	1	10.657042403473	9999.3426607288
0	16	21.258484842722	9998.6853214577
0	31	31.859927281971	9998.0279821865
0	46	42.46136972122	9997.3706429154
0	61	53.062812160469	9996.7133036442
0	76	63.664254599718	9996.0559643731
0	91	74.265697038967	9995.3986251019
0	109	84.867139478216	9994.7412858307
0	124	95.468581917465	9994.0839465596
0	139	106.070024356714	9993.4266072884
0	154	116.671466795963	9992.7692680173
0	172	127.272909235212	9992.1119287461
0	187	137.874351674461	9991.4545894749
0	202	148.47579411371	9990.7972502038
0	217	159.077236552959	9990.1399109326
0	232	169.678678992208	9989.4825716615
0	247	180.280121431457	9988.8252323903
0	262	190.881563870706	9988.1678931192
0	277	201.483006309955	9987.510553848
0	292	212.084448749204	9986.8532145768
0	307	222.685891188453	9986.1958753057
0	322	233.287333627702	9985.5385360345
0	337	243.888776066951	9984.8811967634
0	352	254.4902185062	9984.2238574922
0	367	265.091660945449	9983.5665182211
0	385	275.693103384698	9982.9091789499
0	400	286.294545823947	9982.2518396787
0	415	296.895988263196	9981.5945004076
0	430	307.497430702445	9980.9371611364
0	445	318.098873141694	9980.2798218653
0	460	328.700315580943	9979.6224825941
0	475	339.301758020192	9978.9651433229
0	490	349.903200459441	9978.3078040518
0	505	360.50464289869	9977.6504647806
0	520	371.106085337939	9976.9931255095
0	535	381.707527777188	9976.3357862383
0	550	392.308970216437	9975.6784469672
0	565	402.910412655686	9975.021107696
0	580	413.511855094935	9974.3637684248
0	595	424.113297534184	9973.7064291537
0	610	434.714739973433	9973.0490898825
0	625	445.316182412682	9972.3917506114
0	640	455.917624851931	9971.7344113402
0	658	466.51906729118	9971.077072069
0	673	477.120509730429	9970.4197327979
0	688	487.721952169678	9969.7623935267
0	703	498.323394608927	9969.1050542556
0	718	508.924837048176	9968.4477149844
0	733	519.526279487425	9967.7903757133
0	748	530.127721926674	9967.1330364421
0	763	540.729164365923	9966.4756971709
0	778	551.330606805172	9965.8183578998
0	793	561.932049244421	9965.1610186286
0	808	572.53349168367	9964.5036793575
0	823	583.134934122919	9963.8463400863
0	838	593.736376562168	9963.1890008152
0	853	604.337819001417	9962.531661544
0	868	614.939261440666	9961.8743222728
0	883	625.540703879915	9961.2169830017
0	898	636.142146319164	9960.5596437305
0	913	646.743588758413	9959.9023044594
0	931	657.345031197662	9959.2449651882
0	946	667.946473636911	9958.587625917
0	961	678.54791607616	9957.9302866459
0	976	689.149358515409	9957.2729473747
0	991	699.750800954658	9956.6156081036
0	1006	710.352243393907	9955.9582688324
0	1024	720.953685833156	9955.3009295613
0	1039	731.555128272405	9954.6435902901
0	1054	742.156570711654	9953.9862510189
0	1069	752.758013150903	9953.3289117478
0	1084	763.359455590152	9952.6715724766
0	1099	773.960898029401	9952.0142332055
0	1114	784.56234046865	9951.3568939343
0	1129	795.163782907899	9950.6995546632
0	1144	805.765225347148	9950.042215392
0	1159	816.366667786397	9949.3848761208
0	1174	826.968110225646	9948.7275368497
0	1189	837.569552664895	9948.0701975785
0	1207	848.170995104144	9947.4128583074
0	1222	858.772437543393	9946.7555190362
0	1237	869.373879982642	9946.098179765
0	1252	879.975322421891	9945.4408404939
0	1267	890.57676486114	9944.7835012227
0	1282	901.178207300389	9944.1261619516
0	1297	911.779649739638	9943.4688226804
0	1312	922.381092178887	9942.8114834093
0	1327	932.982534618136	9942.1541441381
0	1342	943.583977057385	9941.4968048669
0	1357	954.185419496634	9940.8394655958
0	1372	964.786861935883	9940.1821263246
0	1387	975.388304375132	9939.5247870535
0	1402	985.989746814381	9938.8674477823
0	1417	996.59118925363	9938.2101085111
0	1432	1007.192631692879	9937.55276924
0	1447	1017.794074132128	9936.8954299688
0	1462	1028.395516571377	9936.2380906977
0	1480	1038.996959010626	9935.5807514265
0	1495	1049.598401449875	9934.9234121554
0	1510	1060.199843889124	9934.2660728842
0	1525	1070.801286328373	9933.608733613
0	1540	1081.402728767622	9932.9513943419
0	1555	1092.004171206871	9932.2940550707
0	1570	1102.60561364612	9931.6367157996
0	1585	1113.207056085369	9930.9793765284
0	1600	1123.808498524618	9930.3220372573
0	1615	1134.409940963867	9929.6646979861
0	1630	1145.011383403116	9929.0073587149
0	1645	1155.612825842365	9928.3500194438
0	1660	1166.214268281614	9927.6926801726
0	1675	1176.815710720863	9927.0353409015
0	1690	1187.417153160112	9926.3780016303
0	1705	1198.018595599361	9925.7206623591
0	1720	1208.62003803861	9925.063323088
0	1735	1219.221480477859	9924.4059838168
0	1753	1229.822922917108	9923.7486445457
0	1768	1240.424365356357	9923.0913052745
0	1783	1251.025807795606	9922.4339660034
0	1798	1261.627250234855	9921.7766267322
0	1813	1272.228692674104	9921.119287461
0	1828	1282.830135113353	9920.4619481899
0	1843	1293.431577552602	9919.8046089187
0	1858	1304.033019991851	9919.1472696476
0	1873	1314.6344624311	9918.4899303764
0	1891	1325.235904870349	9917.8325911053
0	1906	1335.837347309598	9917.1752518341
0	1921	1346.438789748847	9916.5179125629
0	1936	1357.040232188096	9915.8605732918
0	1951	1367.641674627345	9915.2032340206
0	1966	1378.243117066594	9914.5458947495
0	1981	1388.844559505843	9913.8885554783
0	1996	1399.446001945092	9913.2312162071
0	2011	1410.047444384341	9912.573876936
0	2029	1420.64888682359	9911.9165376648
0	2044	1431.250329262839	9911.2591983937
0	2059	1441.851771702088	9910.6018591225
0	2074	1452.453214141337	9909.9445198514
0	2089	1463.054656580586	9909.2871805802
0	2104	1473.656099019835	9908.629841309
0	2119	1484.257541459084	9907.9725020379
0	2134	1494.858983898333	9907.3151627667
0	2149	1505.460426337582	9906.6578234956
0	2164	1516.061868776831	9906.0004842244
0	2179	1526.66331121608	9905.3431449533
0	2194	1537.264753655329	9904.6858056821
0	2209	1547.866196094578	9904.0284664109
0	2224	1558.467638533827	9903.3711271398
0	2239	1569.069080973076	9902.7137878686
0	2254	1579.670523412325	9902.0564485975
0	2269	1590.271965851574	9901.3991093263
0	2284	1600.873408290823	9900.7417700551
0	2302	1611.474850730072	9900.084430784
0	2320	1622.076293169321	9899.4270915128
0	2332	1632.67773560857	9898.7697522417
0	2347	1643.279178047819	9898.1124129705
0	2362	1653.880620487068	9897.4550736994
0	2377	1664.482062926317	9896.7977344282
0	2392	1675.083505365566	9896.140395157
0	2407	1685.684947804815	9895.4830558859
0	2422	1696.286390244064	9894.8257166147
0	2437	1706.887832683313	9894.1683773436
0	2452	1717.489275122562	9893.5110380724
0	2467	1728.090717561811	9892.8536988012
0	2482	1738.69216000106	9892.1963595301
0	2497	1749.293602440309	9891.5390202589
0	2512	1759.895044879558	9890.8816809878
0	2527	1770.496487318807	9890.2243417166
0	2542	1781.097929758056	9889.5670024455
0	2560	1791.699372197305	9888.9096631743
0	2575	1802.300814636554	9888.2523239031
0	2590	1812.902257075803	9887.594984632
0	2605	1823.503699515052	9886.9376453608
0	2620	1834.105141954301	9886.2803060897
0	2635	1844.70658439355	9885.6229668185
0	2650	1855.308026832799	9884.9656275474
0	2665	1865.909469272048	9884.3082882762
0	2680	1876.510911711297	9883.650949005
0	2695	1887.112354150546	9882.9936097339
0	2710	1897.713796589795	9882.3362704627
0	2725	1908.315239029044	9881.6789311916
0	2743	1918.916681468293	9881.0215919204
0	2758	1929.518123907542	9880.3642526492
0	2773	1940.119566346791	9879.7069133781
0	2788	1950.72100878604	9879.0495741069
0	2803	1961.322451225289	9878.3922348358
0	2818	1971.923893664538	9877.7348955646
0	2836	1982.525336103787	9877.0775562935
0	2851	1993.126778543036	9876.4202170223
0	2866	2003.728220982285	9875.7628777511
0	2881	2014.329663421534	9875.10553848
0	2896	2024.931105860783	9874.4481992088
0	2911	2035.532548300032	9873.7908599377
0	2926	2046.133990739281	9873.1335206665
0	2941	2056.73543317853	9872.4761813954
0	2956	2067.336875617779	9871.8188421242
0	2971	2077.938318057028	9871.161502853
0	2986	2088.539760496277	9870.5041635819
0	3001	2099.141202935526	9869.8468243107
0	3016	2109.742645374775	9869.1894850396
0	3031	2120.344087814024	9868.5321457684
0	3046	2130.945530253273	9867.8748064972
0	3061	2141.546972692522	9867.2174672261
0	3076	2152.148415131771	9866.5601279549
0	3091	2162.74985757102	9865.9027886838
0	3109	2173.351300010269	9865.2454494126
0	3124	2183.952742449518	9864.5881101415
0	3139	2194.554184888767	9863.9307708703
0	3154	2205.155627328016	9863.2734315991
0	3169	2215.757069767265	9862.616092328
0	3187	2226.358512206514	9861.9587530568
0	3199	2236.959954645763	9861.3014137857
0	3214	2247.561397085012	9860.6440745145
0	3229	2258.162839524261	9859.9867352434
0	3244	2268.76428196351	9859.3293959722
0	3259	2279.365724402759	9858.672056701
0	3274	2289.967166842008	9858.0147174299
0	3289	2300.568609281257	9857.3573781587
0	3304	2311.170051720506	9856.7000388876
0	3319	2321.771494159755	9856.0426996164
0	3334	2332.372936599004	9855.3853603452
0	3349	2342.974379038253	9854.7280210741
0	3364	2353.575821477502	9854.0706818029
0	3382	2364.177263916751	9853.4133425318
0	3397	2374.778706356	9852.7560032606
0	3412	2385.380148795249	9852.0986639895
0	3427	2395.981591234498	9851.4413247183
0	3442	2406.583033673747	9850.7839854471
0	3454	2417.184476112996	9850.126646176
0	3469	2427.785918552245	9849.4693069048
0	3484	2438.387360991494	9848.8119676337
0	3499	2448.988803430743	9848.1546283625
0	3514	2459.590245869992	9847.4972890913
0	3529	2470.191688309241	9846.8399498202
0	3544	2480.79313074849	9846.182610549
0	3559	2491.394573187739	9845.5252712779
0	3574	2501.996015626988	9844.8679320067
0	3589	2512.597458066237	9844.2105927356
0	3607	2523.198900505486	9843.5532534644
0	3622	2533.800342944735	9842.8959141932
0	3637	2544.401785383984	9842.2385749221
0	3655	2555.003227823233	9841.5812356509
0	3670	2565.604670262482	9840.9238963798
0	3685	2576.206112701731	9840.2665571086
0	3700	2586.80755514098	9839.6092178375
0	3715	2597.408997580229	9838.9518785663
0	3730	2608.010440019478	9838.2945392951
0	3745	2618.611882458727	9837.637200024
0	3760	2629.213324897976	9836.9798607528
0	3775	2639.814767337225	9836.3225214817
0	3790	2650.416209776474	9835.6651822105
0	3805	2661.017652215723	9835.0078429393
0	3820	2671.619094654972	9834.3505036682
0	3835	2682.220537094221	9833.693164397
0	3850	2692.82197953347	9833.0358251259
0	3865	2703.423421972719	9832.3784858547
0	3880	2714.024864411968	9831.7211465836
0	3895	2724.626306851217	9831.0638073124
0	3910	2735.227749290466	9830.4064680412
0	3928	2745.829191729715	9829.7491287701
0	3943	2756.430634168964	9829.0917894989
0	3958	2767.032076608213	9828.4344502278
0	3973	2777.633519047462	9827.7771109566
0	3988	2788.234961486711	9827.1197716855
0	4003	2798.83640392596	9826.4624324143
0	4018	2809.437846365209	9825.8050931431
0	4036	2820.039288804458	9825.147753872
0	4051	2830.640731243707	9824.4904146008
0	4063	2841.242173682956	9823.8330753297
0	4078	2851.843616122205	9823.1757360585
0	4093	2862.445058561454	9822.5183967873
0	4108	2873.046501000703	9821.8610575162
0	4123	2883.647943439952	9821.203718245
0	4138	2894.249385879201	9820.5463789739
0	4153	2904.85082831845	9819.8890397027
0	4168	2915.452270757699	9819.2317004316
0	4183	2926.053713196948	9818.5743611604
0	4201	2936.655155636197	9817.9170218892
0	4216	2947.256598075446	9817.2596826181
0	4231	2957.858040514695	9816.6023433469
0	4246	2968.459482953944	9815.9450040758
0	4261	2979.060925393193	9815.2876648046
0	4276	2989.662367832442	9814.6303255334
0	4291	3000.263810271691	9813.9729862623
0	4306	3010.86525271094	9813.3156469911
0	4321	3021.466695150189	9812.65830772
0	4336	3032.068137589438	9812.0009684488
0	4351	3042.669580028687	9811.3436291777
0	4366	3053.271022467936	9810.6862899065
0	4381	3063.872464907185	9810.0289506353
0	4396	3074.473907346434	9809.3716113642
0	4411	3085.075349785683	9808.714272093
0	4426	3095.676792224932	9808.0569328219
0	4441	3106.278234664181	9807.3995935507
0	4459	3116.87967710343	9806.7422542796
0	4477	3127.481119542679	9806.0849150084
0	4492	3138.082561981928	9805.4275757372
0	4507	3148.684004421177	9804.7702364661
0	4522	3159.285446860426	9804.1128971949
0	4537	3169.886889299675	9803.4555579238
0	4552	3180.488331738924	9802.7982186526
0	4567	3191.089774178173	9802.1408793814
0	4582	3201.691216617422	9801.4835401103
0	4597	3212.292659056671	9800.8262008391
0	4612	3222.89410149592	9800.168861568
0	4627	3233.495543935169	9799.5115222968
0	4642	3244.096986374418	9798.8541830257
0	4657	3254.698428813667	9798.1968437545
0	4672	3265.299871252916	9797.5395044833
0	4687	3275.901313692165	9796.8821652122
0	4702	3286.502756131414	9796.224825941
0	4717	3297.104198570663	9795.5674866699
0	4732	3307.705641009912	9794.9101473987
0	4750	3318.307083449161	9794.2528081276
0	4765	3328.90852588841	9793.5954688564
0	4780	3339.509968327659	9792.9381295852
0	4795	3350.111410766908	9792.2807903141
0	4810	3360.712853206157	9791.6234510429
0	4825	3371.314295645406	9790.9661117718
0	4840	3381.915738084655	9790.3087725006
0	4855	3392.517180523904	9789.6514332294
0	4870	3403.118622963153	9788.9940939583
0	4885	3413.720065402402	9788.3367546871
0	4903	3424.321507841651	9787.679415416
0	4918	3434.9229502809	9787.0220761448
0	4930	3445.524392720149	9786.3647368737
0	4945	3456.125835159398	9785.7073976025
0	4960	3466.727277598647	9785.0500583313
0	4975	3477.328720037896	9784.3927190602
0	4990	3487.930162477145	9783.735379789
0	5005	3498.531604916394	9783.0780405179
0	5023	3509.133047355643	9782.4207012467
0	5038	3519.734489794892	9781.7633619756
0	5053	3530.335932234141	9781.1060227044
0	5068	3540.93737467339	9780.4486834332
0	5083	3551.538817112639	9779.7913441621
0	5098	3562.140259551888	9779.1340048909
0	5113	3572.741701991137	9778.4766656198
0	5128	3583.343144430386	9777.8193263486
0	5143	3593.944586869635	9777.1619870774
0	5158	3604.546029308884	9776.5046478063
0	5173	3615.147471748133	9775.8473085351
0	5188	3625.748914187382	9775.189969264
0	5203	3636.350356626631	9774.5326299928
0	5218	3646.95179906588	9773.8752907217
0	5233	3657.553241505129	9773.2179514505
0	5248	3668.154683944378	9772.5606121793
0	5263	3678.756126383627	9771.9032729082
0	5278	3689.357568822876	9771.245933637
0	5296	3699.959011262125	9770.5885943659
0	5311	3710.560453701374	9769.9312550947
0	5329	3721.161896140623	9769.2739158235
0	5344	3731.763338579872	9768.6165765524
0	5359	3742.364781019121	9767.9592372812
0	5374	3752.96622345837	9767.3018980101
0	5389	3763.567665897619	9766.6445587389
0	5404	3774.169108336868	9765.9872194678
0	5419	3784.770550776117	9765.3298801966
0	5434	3795.371993215366	9764.6725409254
0	5449	3805.973435654615	9764.0152016543
0	5464	3816.574878093864	9763.3578623831
0	5479	3827.176320533113	9762.700523112
0	5494	3837.777762972362	9762.0431838408
0	5509	3848.379205411611	9761.3858445697
0	5524	3858.98064785086	9760.7285052985
0	5539	3869.582090290109	9760.0711660273
0	5554	3880.183532729358	9759.4138267562
0	5572	3890.784975168607	9758.756487485
0	5587	3901.386417607856	9758.0991482139
0	5602	3911.987860047105	9757.4418089427
0	5617	3922.589302486354	9756.7844696715
0	5632	3933.190744925603	9756.1271304004
0	5647	3943.792187364852	9755.4697911292
0	5662	3954.393629804101	9754.8124518581
0	5677	3964.99507224335	9754.1551125869
0	5692	3975.596514682599	9753.4977733158
0	5707	3986.197957121848	9752.8404340446
0	5722	3996.799399561097	9752.1830947734
0	5737	4007.400842000346	9751.5257555023
0	5755	4018.002284439595	9750.8684162311
0	5770	4028.603726878844	9750.21107696
0	5785	4039.205169318093	9749.5537376888
0	5797	4049.806611757342	9748.8963984177
0	5812	4060.408054196591	9748.2390591465
0	5827	4071.00949663584	9747.5817198753
0	5845	4081.610939075089	9746.9243806042
0	5860	4092.212381514338	9746.267041333
0	5875	4102.813823953587	9745.6097020619
0	5890	4113.415266392836	9744.9523627907
0	5905	4124.016708832085	9744.2950235195
0	5920	4134.618151271334	9743.6376842484
0	5935	4145.219593710583	9742.9803449772
0	5950	4155.821036149832	9742.3230057061
0	5965	4166.422478589081	9741.6656664349
0	5980	4177.02392102833	9741.0083271638
0	5995	4187.625363467579	9740.3509878926
0	6010	4198.226805906828	9739.6936486214
0	6025	4208.828248346077	9739.0363093503
0	6040	4219.429690785326	9738.3789700791
0	6055	4230.031133224575	9737.721630808
0	6070	4240.632575663824	9737.0642915368
0	6085	4251.234018103073	9736.4069522657
0	6100	4261.835460542322	9735.7496129945
0	6118	4272.436902981571	9735.0922737233
0	6133	4283.03834542082	9734.4349344522
0	6148	4293.639787860069	9733.777595181
0	6163	4304.241230299318	9733.1202559099
0	6181	4314.842672738567	9732.4629166387
0	6196	4325.444115177816	9731.8055773675
0	6211	4336.045557617065	9731.1482380964
0	6226	4346.647000056314	9730.4908988252
0	6241	4357.248442495563	9729.8335595541
0	6256	4367.849884934812	9729.1762202829
0	6271	4378.451327374061	9728.5188810118
0	6286	4389.05276981331	9727.8615417406
0	6301	4399.654212252559	9727.2042024694
0	6316	4410.255654691808	9726.5468631983
0	6331	4420.857097131057	9725.8895239271
0	6346	4431.458539570306	9725.232184656
0	6361	4442.059982009555	9724.5748453848
0	6376	4452.661424448804	9723.9175061136
0	6394	4463.262866888053	9723.2601668425
0	6409	4473.864309327302	9722.6028275713
0	6424	4484.465751766551	9721.9454883002
0	6439	4495.0671942058	9721.288149029
0	6454	4505.668636645049	9720.6308097579
0	6469	4516.270079084298	9719.9734704867
0	6484	4526.871521523547	9719.3161312155
0	6499	4537.472963962796	9718.6587919444
0	6514	4548.074406402045	9718.0014526732
0	6529	4558.675848841294	9717.3441134021
0	6544	4569.277291280543	9716.6867741309
0	6559	4579.878733719792	9716.0294348598
0	6574	4590.480176159041	9715.3720955886
0	6589	4601.08161859829	9714.7147563174
0	6604	4611.683061037539	9714.0574170463
0	6622	4622.284503476788	9713.4000777751
0	6637	4632.885945916037	9712.742738504
0	6652	4643.487388355286	9712.0853992328
0	6667	4654.088830794535	9711.4280599616
0	6682	4664.690273233784	9710.7707206905
0	6697	4675.291715673033	9710.1133814193
0	6712	4685.893158112282	9709.4560421482
0	6727	4696.494600551531	9708.798702877
0	6742	4707.09604299078	9708.1413636059
0	6757	4717.697485430029	9707.4840243347
0	6772	4728.298927869278	9706.8266850635
0	6787	4738.900370308527	9706.1693457924
0	6802	4749.501812747776	9705.5120065212
0	6817	4760.103255187025	9704.8546672501
0	6832	4770.704697626274	9704.1973279789
0	6847	4781.306140065523	9703.5399887078
0	6862	4791.907582504772	9702.8826494366
0	6877	4802.509024944021	9702.2253101654
0	6892	4813.11046738327	9701.5679708943
0	6907	4823.711909822519	9700.9106316231
0	6925	4834.313352261768	9700.253292352
0	6940	4844.914794701017	9699.5959530808
0	6955	4855.516237140266	9698.9386138096
0	6970	4866.117679579515	9698.2812745385
0	6985	4876.719122018764	9697.6239352673
0	7000	4887.320564458013	9696.9665959962
0	7015	4897.922006897262	9696.309256725
0	7030	4908.523449336511	9695.6519174539
0	7048	4919.12489177576	9694.9945781827
0	7063	4929.726334215009	9694.3372389115
0	7078	4940.327776654258	9693.6798996404
0	7093	4950.929219093507	9693.0225603692
0	7108	4961.530661532756	9692.3652210981
0	7123	4972.132103972005	9691.7078818269
0	7135	4982.733546411254	9691.0505425557
0	7150	4993.334988850503	9690.3932032846
0	7165	5003.936431289752	9689.7358640134
0	7180	5014.537873729001	9689.0785247423
0	7198	5025.13931616825	9688.4211854711
0	7213	5035.740758607499	9687.7638462
0	7228	5046.342201046748	9687.1065069288
0	7243	5056.943643485997	9686.4491676576
0	7258	5067.545085925246	9685.7918283865
0	7273	5078.146528364495	9685.1344891153
0	7288	5088.747970803744	9684.4771498442
0	7303	5099.349413242993	9683.819810573
0	7318	5109.950855682242	9683.1624713019
0	7333	5120.552298121491	9682.5051320307
0	7348	5131.15374056074	9681.8477927595
0	7363	5141.755182999989	9681.1904534884
0	7378	5152.356625439238	9680.5331142172
0	7393	5162.958067878487	9679.8757749461
0	7408	5173.559510317736	9679.2184356749
0	7423	5184.160952756985	9678.5610964037
0	7438	5194.762395196234	9677.9037571326
0	7453	5205.363837635483	9677.2464178614
0	7474	5215.965280074732	9676.5890785903
0	7489	5226.566722513981	9675.9317393191
0	7504	5237.16816495323	9675.274400048
0	7519	5247.769607392479	9674.6170607768
0	7531	5258.371049831728	9673.9597215056
0	7546	5268.972492270977	9673.3023822345
0	7561	5279.573934710226	9672.6450429633
0	7576	5290.175377149475	9671.9877036922
0	7591	5300.776819588724	9671.330364421
0	7606	5311.378262027973	9670.6730251499
0	7621	5321.979704467222	9670.0156858787
0	7636	5332.581146906471	9669.3583466075
0	7651	5343.18258934572	9668.7010073364
0	7666	5353.784031784969	9668.0436680652
0	7681	5364.385474224218	9667.3863287941
0	7696	5374.986916663467	9666.7289895229
0	7711	5385.588359102716	9666.0716502517
0	7726	5396.189801541965	9665.4143109806
0	7744	5406.791243981214	9664.7569717094
0	7759	5417.392686420463	9664.0996324383
0	7774	5427.994128859712	9663.4422931671
0	7789	5438.595571298961	9662.784953896
0	7804	5449.19701373821	9662.1276146248
0	7819	5459.798456177459	9661.4702753536
0	7834	5470.399898616708	9660.8129360825
0	7849	5481.001341055957	9660.1555968113
0	7864	5491.602783495206	9659.4982575402
0	7879	5502.204225934455	9658.840918269
0	7897	5512.805668373704	9658.1835789979
0	7912	5523.407110812953	9657.5262397267
0	7927	5534.008553252202	9656.8689004555
0	7942	5544.609995691451	9656.2115611844
0	7957	5555.2114381307	9655.5542219132
0	7972	5565.812880569949	9654.8968826421
0	7987	5576.414323009198	9654.2395433709
0	8002	5587.015765448447	9653.5822040997
0	8020	5597.617207887696	9652.9248648286
0	8035	5608.218650326945	9652.2675255574
0	8050	5618.820092766194	9651.6101862863
0	8065	5629.421535205443	9650.9528470151
0	8080	5640.022977644692	9650.295507744
0	8095	5650.624420083941	9649.6381684728
0	8110	5661.22586252319	9648.9808292016
0	8125	5671.827304962439	9648.3234899305
0	8140	5682.428747401688	9647.6661506593
0	8155	5693.030189840937	9647.0088113882
0	8170	5703.631632280186	9646.351472117
0	8185	5714.233074719435	9645.6941328458
0	8200	5724.834517158684	9645.0367935747
0	8215	5735.435959597933	9644.3794543035
0	8230	5746.037402037182	9643.7221150324
0	8245	5756.638844476431	9643.0647757612
0	8260	5767.24028691568	9642.4074364901
0	8275	5777.841729354929	9641.7500972189
0	8293	5788.443171794178	9641.0927579477
0	8308	5799.044614233427	9640.4354186766
0	8323	5809.646056672676	9639.7780794054
0	8341	5820.247499111925	9639.1207401343
0	8356	5830.848941551174	9638.4634008631
0	8371	5841.450383990423	9637.806061592
0	8386	5852.051826429672	9637.1487223208
0	8398	5862.653268868921	9636.4913830496
0	8413	5873.25471130817	9635.8340437785
0	8428	5883.856153747419	9635.1767045073
0	8443	5894.457596186668	9634.5193652362
0	8458	5905.059038625917	9633.862025965
0	8473	5915.660481065166	9633.2046866938
0	8488	5926.261923504415	9632.5473474227
0	8503	5936.863365943664	9631.8900081515
0	8518	5947.464808382913	9631.2326688804
0	8533	5958.066250822162	9630.5753296092
0	8548	5968.667693261411	9629.9179903381
0	8566	5979.26913570066	9629.2606510669
0	8581	5989.870578139909	9628.6033117957
0	8596	6000.472020579158	9627.9459725246
0	8611	6011.073463018407	9627.2886332534
0	8626	6021.674905457656	9626.6312939823
0	8641	6032.276347896905	9625.9739547111
0	8656	6042.877790336154	9625.31661544
0	8671	6053.479232775403	9624.6592761688
0	8686	6064.080675214652	9624.0019368976
0	8701	6074.682117653901	9623.3445976265
0	8716	6085.28356009315	9622.6872583553
0	8731	6095.885002532399	9622.0299190842
0	8746	6106.486444971648	9621.372579813
0	8764	6117.087887410897	9620.7152405418
0	8779	6127.689329850146	9620.0579012707
0	8794	6138.290772289395	9619.4005619995
0	8809	6148.892214728644	9618.7432227284
0	8824	6159.493657167893	9618.0858834572
0	8842	6170.095099607142	9617.4285441861
0	8857	6180.696542046391	9616.7712049149
0	8872	6191.29798448564	9616.1138656437
0	8887	6201.899426924889	9615.4565263726
0	8902	6212.500869364138	9614.7991871014
0	8917	6223.102311803387	9614.1418478303
0	8932	6233.703754242636	9613.4845085591
0	8947	6244.305196681885	9612.8271692879
0	8962	6254.906639121134	9612.1698300168
0	8977	6265.508081560383	9611.5124907456
0	8992	6276.109523999632	9610.8551514745
0	9007	6286.710966438881	9610.1978122033
0	9022	6297.31240887813	9609.5404729322
0	9037	6307.913851317379	9608.883133661
0	9052	6318.515293756628	9608.2257943898
0	9067	6329.116736195877	9607.5684551187
0	9082	6339.718178635126	9606.9111158475
0	9097	6350.319621074375	9606.2537765764
0	9115	6360.921063513624	9605.5964373052
0	9130	6371.522505952873	9604.9390980341
0	9145	6382.123948392122	9604.2817587629
0	9160	6392.725390831371	9603.6244194917
0	9175	6403.32683327062	9602.9670802206
0	9193	6413.928275709869	9602.3097409494
0	9208	6424.529718149118	9601.6524016783
0	9223	6435.131160588367	9600.9950624071
0	9238	6445.732603027616	9600.3377231359
0	9253	6456.334045466865	9599.6803838648
0	9265	6466.935487906114	9599.0230445936
0	9280	6477.536930345363	9598.3657053225
0	9295	6488.138372784612	9597.7083660513
0	9310	6498.739815223861	9597.0510267802
0	9325	6509.34125766311	9596.393687509
0	9340	6519.942700102359	9595.7363482378
0	9355	6530.544142541608	9595.0790089667
0	9370	6541.145584980857	9594.4216696955
0	9388	6551.747027420106	9593.7643304244
0	9403	6562.348469859355	9593.1069911532
0	9418	6572.949912298604	9592.4496518821
0	9433	6583.551354737853	9591.7923126109
0	9448	6594.152797177102	9591.1349733397
0	9463	6604.754239616351	9590.4776340686
0	9478	6615.3556820556	9589.8202947974
0	9493	6625.957124494849	9589.1629555263
0	9508	6636.558566934098	9588.5056162551
0	9523	6647.160009373347	9587.8482769839
0	9538	6657.761451812596	9587.1909377128
0	9553	6668.362894251845	9586.5335984416
0	9568	6678.964336691094	9585.8762591705
0	9583	6689.565779130343	9585.2189198993
0	9598	6700.167221569592	9584.5615806282
0	9616	6710.768664008841	9583.904241357
0	9631	6721.37010644809	9583.2469020858
0	9646	6731.971548887339	9582.5895628147
0	9664	6742.572991326588	9581.9322235435
0	9679	6753.174433765837	9581.2748842724
0	9694	6763.775876205086	9580.6175450012
0	9709	6774.377318644335	9579.9602057301
0	9724	6784.978761083584	9579.3028664589
0	9739	6795.580203522833	9578.6455271877
0	9754	6806.181645962082	9577.9881879166
0	9769	6816.783088401331	9577.3308486454
0	9784	6827.38453084058	9576.6735093743
0	9799	6837.985973279829	9576.0161701031
0	9814	6848.587415719078	9575.3588308319
0	9829	6859.188858158327	9574.7014915608
0	9844	6869.790300597576	9574.0441522896
0	9859	6880.391743036825	9573.3868130185
0	9874	6890.993185476074	9572.7294737473
0	9889	6901.594627915323	9572.0721344762
0	9904	6912.196070354572	9571.414795205
0	9919	6922.797512793821	9570.7574559338
0	9937	6933.39895523307	9570.1001166627
0	9952	6944.000397672319	9569.4427773915
0	9967	6954.601840111568	9568.7854381204
0	9982	6965.203282550817	9568.1280988492
0	9997	6975.804724990066	9567.470759578
0	10012	6986.406167429315	9566.8134203069
0	10027	6997.007609868564	9566.1560810357
0	10042	7007.609052307813	9565.4987417646
0	10060	7018.210494747062	9564.8414024934
0	10075	7028.811937186311	9564.1840632223
0	10090	7039.41337962556	9563.5267239511
0	10105	7050.014822064809	9562.8693846799
0	10120	7060.616264504058	9562.2120454088
0	10132	7071.217706943307	9561.5547061376
0	10147	7081.819149382556	9560.8973668665
0	10162	7092.420591821805	9560.2400275953
0	10177	7103.022034261054	9559.5826883242
0	10192	7113.623476700303	9558.925349053
0	10210	7124.224919139552	9558.2680097818
0	10225	7134.826361578801	9557.6106705107
0	10240	7145.42780401805	9556.9533312395
0	10255	7156.029246457299	9556.2959919684
0	10270	7166.630688896548	9555.6386526972
0	10285	7177.232131335797	9554.981313426
0	10300	7187.833573775046	9554.3239741549
0	10315	7198.435016214295	9553.6666348837
0	10330	7209.036458653544	9553.0092956126
0	10345	7219.637901092793	9552.3519563414
0	10360	7230.239343532042	9551.6946170703
0	10375	7240.840785971291	9551.0372777991
0	10390	7251.44222841054	9550.3799385279
0	10405	7262.043670849789	9549.7225992568
0	10420	7272.645113289038	9549.0652599856
0	10435	7283.246555728287	9548.4079207145
0	10450	7293.847998167536	9547.7505814433
0	10465	7304.449440606785	9547.0932421722
0	10486	7315.050883046034	9546.435902901
0	10501	7325.652325485283	9545.7785636298
0	10516	7336.253767924532	9545.1212243587
0	10531	7346.855210363781	9544.4638850875
0	10546	7357.45665280303	9543.8065458164
0	10561	7368.058095242279	9543.1492065452